 argument  1 = midz_input.txt



============================== echo of input deck ==============================
echo

start midz

title "3-Methylimidazole"

# Geometry optimization with 2 basis sets

memory total 4 gb

charge 1

geometry noautoz
   C        0.97099       -0.00536        0.04739
   N        2.38793        0.01451        0.04500
   C        3.14021        1.16335        0.04625
   C        4.45600        0.73095        0.04303
   N        4.41805       -0.65646        0.04003
   H        5.23064       -1.26866        0.03727
   C        3.14764       -1.07793        0.04128
   H        0.60022        0.99834        0.05024
   H        0.62292       -0.51665        0.92051
   H        0.61993       -0.51278       -0.82679
   H        2.79919        2.13738        0.04899
   H        5.30012        1.32466        0.04289
   H        2.82162       -2.05708        0.03968
end

# Geometry optimization using b3lyp/STO-3G level

basis
  * library sto-3g
end

driver
  maxiter 999
end

dft
  xc b3lyp
  mult 1
  maxiter 199
end

cosmo
  solvent water
  do_cosmo_smd false
end

title "Molecular optimization: STO-3G basis set"
task dft optimize

# Geometry optimization using b3lyp/6-31++G level

BASIS "ao basis" SPHERICAL PRINT
#BASIS SET: (5s) -> [3s]
H    S
      0.1873113696E+02       0.3349460434E-01
      0.2825394365E+01       0.2347269535E+00
      0.6401216923E+00       0.8137573261E+00
H    S
      0.1612777588E+00       1.0000000
H    S
      0.3600000000E-01       0.1000000000E+01
#BASIS SET: (5s) -> [3s]
He    S
      0.3842163400E+02       0.4013973935E-01
      0.5778030000E+01       0.2612460970E+00
      0.1241774000E+01       0.7931846246E+00
He    S
      0.2979640000E+00       1.0000000
He    S
      0.8600000000E-01       0.1000000000E+01
#BASIS SET: (11s,5p) -> [4s,3p]
Li    S
      0.6424189150E+03       0.2142607810E-02
      0.9679851530E+02       0.1620887150E-01
      0.2209112120E+02       0.7731557250E-01
      0.6201070250E+01       0.2457860520E+00
      0.1935117680E+01       0.4701890040E+00
      0.6367357890E+00       0.3454708450E+00
Li    SP
      0.2324918408E+01      -0.3509174574E-01       0.8941508043E-02
      0.6324303556E+00      -0.1912328431E+00       0.1410094640E+00
      0.7905343475E-01       0.1083987795E+01       0.9453636953E+00
Li    SP
      0.3596197175E-01       0.1000000000E+01       0.1000000000E+01
Li    SP
      0.7400000000E-02       0.1000000000E+01       0.1000000000E+01
#BASIS SET: (11s,5p) -> [4s,3p]
Be    S
      0.1264585690E+04       0.1944757590E-02
      0.1899368060E+03       0.1483505200E-01
      0.4315908900E+02       0.7209054629E-01
      0.1209866270E+02       0.2371541500E+00
      0.3806323220E+01       0.4691986519E+00
      0.1272890300E+01       0.3565202279E+00
Be    SP
      0.3196463098E+01      -0.1126487285E+00       0.5598019980E-01
      0.7478133038E+00      -0.2295064079E+00       0.2615506110E+00
      0.2199663302E+00       0.1186916764E+01       0.7939723389E+00
Be    SP
      0.8230990070E-01       0.1000000000E+01       0.1000000000E+01
Be    SP
      0.2070000000E-01       0.1000000000E+01       0.1000000000E+01
#BASIS SET: (11s,5p) -> [4s,3p]
B    S
      0.2068882250E+04       0.1866274590E-02
      0.3106495700E+03       0.1425148170E-01
      0.7068303300E+02       0.6955161850E-01
      0.1986108030E+02       0.2325729330E+00
      0.6299304840E+01       0.4670787120E+00
      0.2127026970E+01       0.3634314400E+00
B    SP
      0.4727971071E+01      -0.1303937974E+00       0.7459757992E-01
      0.1190337736E+01      -0.1307889514E+00       0.3078466771E+00
      0.3594116829E+00       0.1130944484E+01       0.7434568342E+00
B    SP
      0.1267512469E+00       0.1000000000E+01       0.1000000000E+01
B    SP
      0.3150000000E-01       0.1000000000E+01       0.1000000000E+01
#BASIS SET: (11s,5p) -> [4s,3p]
C    S
      0.3047524880E+04       0.1834737132E-02
      0.4573695180E+03       0.1403732281E-01
      0.1039486850E+03       0.6884262226E-01
      0.2921015530E+02       0.2321844432E+00
      0.9286662960E+01       0.4679413484E+00
      0.3163926960E+01       0.3623119853E+00
C    SP
      0.7868272350E+01      -0.1193324198E+00       0.6899906659E-01
      0.1881288540E+01      -0.1608541517E+00       0.3164239610E+00
      0.5442492580E+00       0.1143456438E+01       0.7443082909E+00
C    SP
      0.1687144782E+00       0.1000000000E+01       0.1000000000E+01
C    SP
      0.4380000000E-01       0.1000000000E+01       0.1000000000E+01
#BASIS SET: (11s,5p) -> [4s,3p]
N    S
      0.4173511460E+04       0.1834772160E-02
      0.6274579110E+03       0.1399462700E-01
      0.1429020930E+03       0.6858655181E-01
      0.4023432930E+02       0.2322408730E+00
      0.1282021290E+02       0.4690699481E+00
      0.4390437010E+01       0.3604551991E+00
N    SP
      0.1162636186E+02      -0.1149611817E+00       0.6757974388E-01
      0.2716279807E+01      -0.1691174786E+00       0.3239072959E+00
      0.7722183966E+00       0.1145851947E+01       0.7408951398E+00
N    SP
      0.2120314975E+00       0.1000000000E+01       0.1000000000E+01
N    SP
      0.6390000000E-01       0.1000000000E+01       0.1000000000E+01
#BASIS SET: (11s,5p) -> [4s,3p]
O    S
      0.5484671660E+04       0.1831074430E-02
      0.8252349460E+03       0.1395017220E-01
      0.1880469580E+03       0.6844507810E-01
      0.5296450000E+02       0.2327143360E+00
      0.1689757040E+02       0.4701928980E+00
      0.5799635340E+01       0.3585208530E+00
O    SP
      0.1553961625E+02      -0.1107775495E+00       0.7087426823E-01
      0.3599933586E+01      -0.1480262627E+00       0.3397528391E+00
      0.1013761750E+01       0.1130767015E+01       0.7271585773E+00
O    SP
      0.2700058226E+00       0.1000000000E+01       0.1000000000E+01
O    SP
      0.8450000000E-01       0.1000000000E+01       0.1000000000E+01
#BASIS SET: (11s,5p) -> [4s,3p]
F    S
      0.7001713090E+04       0.1819616901E-02
      0.1051366090E+04       0.1391607961E-01
      0.2392856900E+03       0.6840532453E-01
      0.6739744530E+02       0.2331857601E+00
      0.2151995730E+02       0.4712674392E+00
      0.7403101300E+01       0.3566185462E+00
F    SP
      0.2084795280E+02      -0.1085069751E+00       0.7162872424E-01
      0.4808308340E+01      -0.1464516581E+00       0.3459121027E+00
      0.1344069860E+01       0.1128688581E+01       0.7224699564E+00
F    SP
      0.3581513930E+00       0.1000000000E+01       0.1000000000E+01
F    SP
      0.1076000000E+00       0.1000000000E+01       0.1000000000E+01
#BASIS SET: (11s,5p) -> [4s,3p]
Ne    S
      0.8425851530E+04       0.1884348050E-02
      0.1268519400E+04       0.1433689940E-01
      0.2896214140E+03       0.7010962331E-01
      0.8185900400E+02       0.2373732660E+00
      0.2625150790E+02       0.4730071261E+00
      0.9094720510E+01       0.3484012410E+00
Ne    SP
      0.2653213100E+02      -0.1071182872E+00       0.7190958851E-01
      0.6101755010E+01      -0.1461638213E+00       0.3495133720E+00
      0.1696271530E+01       0.1127773503E+01       0.7199405121E+00
Ne    SP
      0.4458187000E+00       0.1000000000E+01       0.1000000000E+01
Ne    SP
      0.1300000000E+00       0.1000000000E+01       0.1000000000E+01
#BASIS SET: (17s,11p) -> [5s,4p]
Na    S
      0.9993200000E+04       0.1937659277E-02
      0.1499890000E+04       0.1480699448E-01
      0.3419510000E+03       0.7270547288E-01
      0.9467960000E+02       0.2526289058E+00
      0.2973450000E+02       0.4932418160E+00
      0.1000630000E+02       0.3131688832E+00
Na    SP
      0.1509630000E+03      -0.3542083504E-02       0.5001659710E-02
      0.3558780000E+02      -0.4395884348E-01       0.3551089794E-01
      0.1116830000E+02      -0.1097521086E+00       0.1428249917E+00
      0.3902010000E+01       0.1873981854E+00       0.3386199803E+00
      0.1381770000E+01       0.6466996397E+00       0.4515789738E+00
      0.4663820000E+00       0.3060583027E+00       0.2732709841E+00
Na    SP
      0.4979660000E+00      -0.2485031593E+00      -0.2302250043E-01
      0.8435290000E-01      -0.1317040844E+00       0.9503590176E+00
      0.6663500000E-01       0.1233520791E+01       0.5985790111E-01
Na    SP
      0.2595440000E-01       0.1000000000E+01       0.1000000000E+01
Na    SP
      0.7600000000E-02       0.1000000000E+01       0.1000000000E+01
#BASIS SET: (17s,11p) -> [5s,4p]
Mg    S
      0.1172280000E+05       0.1977829317E-02
      0.1759930000E+04       0.1511399478E-01
      0.4008460000E+03       0.7391077448E-01
      0.1128070000E+03       0.2491909140E+00
      0.3599970000E+02       0.4879278316E+00
      0.1218280000E+02       0.3196618896E+00
Mg    SP
      0.1891800000E+03      -0.3237170471E-02       0.4928129921E-02
      0.4521190000E+02      -0.4100790597E-01       0.3498879944E-01
      0.1435630000E+02      -0.1126000164E+00       0.1407249977E+00
      0.5138860000E+01       0.1486330216E+00       0.3336419947E+00
      0.1906520000E+01       0.6164970898E+00       0.4449399929E+00
      0.7058870000E+00       0.3648290531E+00       0.2692539957E+00
Mg    SP
      0.9293400000E+00      -0.2122908985E+00      -0.2241918123E-01
      0.2690350000E+00      -0.1079854570E+00       0.1922708390E+00
      0.1173790000E+00       0.1175844977E+01       0.8461802916E+00
Mg    SP
      0.4210610000E-01       0.1000000000E+01       0.1000000000E+01
Mg    SP
      0.1460000000E-01       0.1000000000E+01       0.1000000000E+01
#BASIS SET: (17s,11p) -> [5s,4p]
Al    S
      0.1398310000E+05       0.1942669947E-02
      0.2098750000E+04       0.1485989959E-01
      0.4777050000E+03       0.7284939800E-01
      0.1343600000E+03       0.2468299932E+00
      0.4287090000E+02       0.4872579866E+00
      0.1451890000E+02       0.3234959911E+00
Al    SP
      0.2396680000E+03      -0.2926190028E-02       0.4602845582E-02
      0.5744190000E+02      -0.3740830036E-01       0.3319896813E-01
      0.1828590000E+02      -0.1144870011E+00       0.1362818692E+00
      0.6599140000E+01       0.1156350011E+00       0.3304756828E+00
      0.2490490000E+01       0.6125950058E+00       0.4491455689E+00
      0.9445450000E+00       0.3937990037E+00       0.2657037450E+00
Al    SP
      0.1277900000E+01      -0.2276069245E+00      -0.1751260189E-01
      0.3975900000E+00       0.1445835873E-02       0.2445330264E+00
      0.1600950000E+00       0.1092794439E+01       0.8049340867E+00
Al    SP
      0.5565770000E-01       0.1000000000E+01       0.1000000000E+01
Al    SP
      0.3180000000E-01       0.1000000000E+01       0.1000000000E+01
#BASIS SET: (17s,11p) -> [5s,4p]
Si    S
      0.1611590000E+05       0.1959480216E-02
      0.2425580000E+04       0.1492880164E-01
      0.5538670000E+03       0.7284780801E-01
      0.1563400000E+03       0.2461300271E+00
      0.5006830000E+02       0.4859140535E+00
      0.1701780000E+02       0.3250020358E+00
Si    SP
      0.2927180000E+03      -0.2780941415E-02       0.4438264521E-02
      0.6987310000E+02      -0.3571461817E-01       0.3266793328E-01
      0.2233630000E+02      -0.1149850585E+00       0.1347211372E+00
      0.8150390000E+01       0.9356344760E-01       0.3286783348E+00
      0.3134580000E+01       0.6030173068E+00       0.4496404580E+00
      0.1225430000E+01       0.4189592131E+00       0.2613722662E+00
Si    SP
      0.1727380000E+01      -0.2446310042E+00      -0.1779510605E-01
      0.5729220000E+00       0.4315737717E-02       0.2535390863E+00
      0.2221920000E+00       0.1098184508E+01       0.8006692724E+00
Si    SP
      0.7783690000E-01       0.1000000000E+01       0.1000000000E+01
Si    SP
      0.3310000000E-01       0.1000000000E+01       0.1000000000E+01
#BASIS SET: (17s,11p) -> [5s,4p]
P    S
      0.1941330000E+05       0.1851598923E-02
      0.2909420000E+04       0.1420619174E-01
      0.6613640000E+03       0.6999945928E-01
      0.1857590000E+03       0.2400788603E+00
      0.5919430000E+02       0.4847617180E+00
      0.2003100000E+02       0.3351998050E+00
P    SP
      0.3394780000E+03      -0.2782170105E-02       0.4564616191E-02
      0.8101010000E+02      -0.3604990135E-01       0.3369357188E-01
      0.2587800000E+02      -0.1166310044E+00       0.1397548834E+00
      0.9452210000E+01       0.9683280364E-01       0.3393617168E+00
      0.3665660000E+01       0.6144180231E+00       0.4509206237E+00
      0.1467460000E+01       0.4037980152E+00       0.2385858009E+00
P    SP
      0.2156230000E+01      -0.2529241139E+00      -0.1776531273E-01
      0.7489970000E+00       0.3285184468E-01       0.2740581964E+00
      0.2831450000E+00       0.1081254762E+01       0.7854215630E+00
P    SP
      0.9983170000E-01       0.1000000000E+01       0.1000000000E+01
P    SP
      0.3480000000E-01       0.1000000000E+01       0.1000000000E+01
#BASIS SET: (17s,11p) -> [5s,4p]
S    S
      0.2191710000E+05       0.1869240849E-02
      0.3301490000E+04       0.1423030646E-01
      0.7541460000E+03       0.6969623166E-01
      0.2127110000E+03       0.2384871083E+00
      0.6798960000E+02       0.4833072195E+00
      0.2305150000E+02       0.3380741536E+00
S    SP
      0.4237350000E+03      -0.2376770499E-02       0.4061009982E-02
      0.1007100000E+03      -0.3169300665E-01       0.3068129986E-01
      0.3215990000E+02      -0.1133170238E+00       0.1304519994E+00
      0.1180790000E+02       0.5609001177E-01       0.3272049985E+00
      0.4631100000E+01       0.5922551243E+00       0.4528509980E+00
      0.1870250000E+01       0.4550060955E+00       0.2560419989E+00
S    SP
      0.2615840000E+01      -0.2503731142E+00      -0.1451048955E-01
      0.9221670000E+00       0.6695676310E-01       0.3102627765E+00
      0.3412870000E+00       0.1054506269E+01       0.7544824565E+00
S    SP
      0.1171670000E+00       0.1000000000E+01       0.1000000000E+01
S    SP
      0.4050000000E-01       0.1000000000E+01       0.1000000000E+01
#BASIS SET: (17s,11p) -> [5s,4p]
Cl    S
      0.2518010000E+05       0.1832959848E-02
      0.3780350000E+04       0.1403419883E-01
      0.8604740000E+03       0.6909739426E-01
      0.2421450000E+03       0.2374519803E+00
      0.7733490000E+02       0.4830339599E+00
      0.2624700000E+02       0.3398559718E+00
Cl    SP
      0.4917650000E+03      -0.2297391417E-02       0.3989400879E-02
      0.1169840000E+03      -0.3071371894E-01       0.3031770668E-01
      0.3741530000E+02      -0.1125280694E+00       0.1298800286E+00
      0.1378340000E+02       0.4501632776E-01       0.3279510723E+00
      0.5452150000E+01       0.5893533634E+00       0.4535271000E+00
      0.2225880000E+01       0.4652062868E+00       0.2521540556E+00
Cl    SP
      0.3186490000E+01      -0.2518280280E+00      -0.1429931472E-01
      0.1144270000E+01       0.6158925141E-01       0.3235723331E+00
      0.4203770000E+00       0.1060184328E+01       0.7435077653E+00
Cl    SP
      0.1426570000E+00       0.1000000000E+01       0.1000000000E+01
Cl    SP
      0.4830000000E-01       0.1000000000E+01       0.1000000000E+01
#BASIS SET: (17s,11p) -> [5s,4p]
Ar    S
      0.2834830000E+05       0.1825260192E-02
      0.4257620000E+04       0.1396860147E-01
      0.9698570000E+03       0.6870730723E-01
      0.2732630000E+03       0.2362040249E+00
      0.8736950000E+02       0.4822140508E+00
      0.2968670000E+02       0.3420430360E+00
Ar    SP
      0.5758910000E+03      -0.2159720895E-02       0.3806649842E-02
      0.1368160000E+03      -0.2907751206E-01       0.2923049879E-01
      0.4380980000E+02      -0.1108270460E+00       0.1264669948E+00
      0.1620940000E+02       0.2769991148E-01       0.3235099866E+00
      0.6460840000E+01       0.5776132395E+00       0.4548959811E+00
      0.2651140000E+01       0.4886882026E+00       0.2566299894E+00
Ar    SP
      0.3860280000E+01      -0.2555929604E+00      -0.1591969040E-01
      0.1413730000E+01       0.3780674206E-01       0.3246458042E+00
      0.5166460000E+00       0.1080564060E+01       0.7439895512E+00
Ar    SP
      0.1738880000E+00       0.1000000000E+01       0.1000000000E+01
Ar    SP
      0.6000000000E-01       0.1000000000E+01       0.1000000000E+01
end

driver
  maxiter 999
end

dft
  xc b3lyp
  mult 1
  maxiter 199
end

cosmo
  solvent water
  do_cosmo_smd false
end

property
  dipole
  mulliken
  moldenfile
  molden_norm janpa
end

task dft optimize

task dft energy

task dft property
================================================================================


                                         
                                         


             Northwest Computational Chemistry Package (NWChem) 7.0.2
             --------------------------------------------------------


                    Environmental Molecular Sciences Laboratory
                       Pacific Northwest National Laboratory
                                Richland, WA 99352

                              Copyright (c) 1994-2020
                       Pacific Northwest National Laboratory
                            Battelle Memorial Institute

             NWChem is an open-source computational chemistry package
                        distributed under the terms of the
                      Educational Community License (ECL) 2.0
             A copy of the license is included with this distribution
                              in the LICENSE.TXT file

                                  ACKNOWLEDGMENT
                                  --------------

            This software and its documentation were developed at the
            EMSL at Pacific Northwest National Laboratory, a multiprogram
            national laboratory, operated for the U.S. Department of Energy
            by Battelle under Contract Number DE-AC05-76RL01830. Support
            for this work was provided by the Department of Energy Office
            of Biological and Environmental Research, Office of Basic
            Energy Sciences, and the Office of Advanced Scientific Computing.


           Job information
           ---------------

    hostname        = NewSitt
    program         = nwchem
    date            = Mon Dec  2 14:39:18 2024

    compiled        = Sat_Apr_09_17:12:10_2022
    source          = /build/nwchem-f1f4gx/nwchem-7.0.2/build-openmpi
    nwchem branch   = 7.0.2
    nwchem revision = N/A
    ga revision     = 5.8.1
    use scalapack   = T
    input           = midz_input.txt
    prefix          = midz.
    data base       = ./midz.db
    status          = startup
    nproc           =        4
    time left       =     -1s



           Memory information
           ------------------

    heap     =  134217722 doubles =   1024.0 Mbytes
    stack    =  134217727 doubles =   1024.0 Mbytes
    global   =  268435456 doubles =   2048.0 Mbytes (distinct from heap & stack)
    total    =  536870905 doubles =   4096.0 Mbytes
    verify   = yes
    hardfail = no 


           Directory information
           ---------------------

  0 permanent = .
  0 scratch   = .




                                NWChem Input Module
                                -------------------


                                 3-Methylimidazole
                                 -----------------

 Scaling coordinates for geometry "geometry" by  1.889725989
 (inverse scale =  0.529177249)

 CS  symmetry detected


                             Geometry "geometry" -> ""
                             -------------------------

 Output coordinates in angstroms (scale by  1.889725989 to convert to a.u.)

  No.       Tag          Charge          X              Y              Z
 ---- ---------------- ---------- -------------- -------------- --------------
    1 C                    6.0000    -0.01728558     2.04956988     0.00000000
    2 N                    7.0000     0.00349133     0.63264087     0.00000000
    3 C                    6.0000     1.15281538    -0.11890044     0.00000000
    4 C                    6.0000     0.72125653    -1.43497051     0.00000000
    5 N                    7.0000    -0.66618085    -1.39791369     0.00000000
    6 H                    1.0000    -1.27786217    -2.21089889     0.00000000
    7 C                    6.0000    -1.08846488    -0.12777343     0.00000000
    8 H                    1.0000     0.98617935     2.42098654     0.00000000
    9 H                    1.0000    -0.52686546     2.39880738     0.87365342
   10 H                    1.0000    -0.52686546     2.39880738    -0.87365342
   11 H                    1.0000     2.12662930     0.22274709     0.00000000
   12 H                    1.0000     1.31550811    -2.27870934     0.00000000
   13 H                    1.0000    -2.06782572     0.19761660     0.00000000

      Atomic Mass 
      ----------- 

      C                 12.000000
      N                 14.003070
      H                  1.007825


 Effective nuclear repulsion energy (a.u.)     238.9657066227

            Nuclear Dipole moment (a.u.) 
            ----------------------------
        X                 Y               Z
 ---------------- ---------------- ----------------
    -0.0000000000     0.0000000000     0.0000000000

      Symmetry information
      --------------------

 Group name             Cs        
 Group number              2
 Group order               2
 No. of unique centers    12

      Symmetry unique atoms

     1    2    3    4    5    6    7    8    9   11   12   13


            XYZ format geometry
            -------------------
    13
 geometry
 C                    -0.01728558     2.04956988     0.00000000
 N                     0.00349133     0.63264087     0.00000000
 C                     1.15281538    -0.11890044     0.00000000
 C                     0.72125653    -1.43497051     0.00000000
 N                    -0.66618085    -1.39791369     0.00000000
 H                    -1.27786217    -2.21089889     0.00000000
 C                    -1.08846488    -0.12777343     0.00000000
 H                     0.98617935     2.42098654     0.00000000
 H                    -0.52686546     2.39880738     0.87365342
 H                    -0.52686546     2.39880738    -0.87365342
 H                     2.12662930     0.22274709     0.00000000
 H                     1.31550811    -2.27870934     0.00000000
 H                    -2.06782572     0.19761660     0.00000000

 ==============================================================================
                                internuclear distances
 ------------------------------------------------------------------------------
       center one      |      center two      | atomic units |  angstroms
 ------------------------------------------------------------------------------
    2 N                |   1 C                |     2.67790  |     1.41708
    3 C                |   2 N                |     2.59503  |     1.37323
    4 C                |   3 C                |     2.61731  |     1.38502
    5 N                |   4 C                |     2.62281  |     1.38793
    6 H                |   5 N                |     1.92260  |     1.01740
    7 C                |   2 N                |     2.51454  |     1.33064
    7 C                |   5 N                |     2.52940  |     1.33850
    8 H                |   1 C                |     2.02200  |     1.07000
    9 H                |   1 C                |     2.02201  |     1.07000
   10 H                |   1 C                |     2.02201  |     1.07000
   11 H                |   3 C                |     1.95021  |     1.03201
   12 H                |   4 C                |     1.95020  |     1.03200
   13 H                |   7 C                |     1.95020  |     1.03200
 ------------------------------------------------------------------------------
                         number of included internuclear distances:         13
 ==============================================================================



 ==============================================================================
                                 internuclear angles
 ------------------------------------------------------------------------------
        center 1       |       center 2       |       center 3       |  degrees
 ------------------------------------------------------------------------------
    2 N                |   1 C                |   8 H                |   109.47
    2 N                |   1 C                |   9 H                |   109.47
    2 N                |   1 C                |  10 H                |   109.47
    8 H                |   1 C                |   9 H                |   109.47
    8 H                |   1 C                |  10 H                |   109.47
    9 H                |   1 C                |  10 H                |   109.47
    1 C                |   2 N                |   3 C                |   124.02
    1 C                |   2 N                |   7 C                |   124.01
    3 C                |   2 N                |   7 C                |   111.97
    2 N                |   3 C                |   4 C                |   105.03
    2 N                |   3 C                |  11 H                |   127.49
    4 C                |   3 C                |  11 H                |   127.49
    3 C                |   4 C                |   5 N                |   106.63
    3 C                |   4 C                |  12 H                |   126.69
    5 N                |   4 C                |  12 H                |   126.69
    4 C                |   5 N                |   6 H                |   125.43
    4 C                |   5 N                |   7 C                |   109.92
    6 H                |   5 N                |   7 C                |   124.65
    2 N                |   7 C                |   5 N                |   106.46
    2 N                |   7 C                |  13 H                |   126.77
    5 N                |   7 C                |  13 H                |   126.77
 ------------------------------------------------------------------------------
                            number of included internuclear angles:         21
 ==============================================================================





 Summary of "ao basis" -> "" (cartesian)
 ------------------------------------------------------------------------------
       Tag                 Description            Shells   Functions and Types
 ---------------- ------------------------------  ------  ---------------------
 *                           sto-3g                   on all atoms 


                     Molecular optimization: STO-3G basis set
                     ----------------------------------------


                           NWChem Geometry Optimization
                           ----------------------------




                     Molecular optimization: STO-3G basis set


 maximum gradient threshold         (gmax) =   0.000450
 rms gradient threshold             (grms) =   0.000300
 maximum cartesian step threshold   (xmax) =   0.001800
 rms cartesian step threshold       (xrms) =   0.001200
 fixed trust radius                (trust) =   0.300000
 maximum step size to saddle      (sadstp) =   0.100000
 energy precision                  (eprec) =   5.0D-06
 maximum number of steps          (nptopt) =  999
 initial hessian option           (inhess) =    0
 line search option               (linopt) =    1
 hessian update option            (modupd) =    1
 saddle point option              (modsad) =    0
 initial eigen-mode to follow     (moddir) =    0
 initial variable to follow       (vardir) =    0
 follow first negative mode     (firstneg) =    T
 apply conjugacy                    (opcg) =    F
 source of zmatrix                         =           


          -------------------
          Energy Minimization
          -------------------


 Using diagonal initial Hessian 

          --------
          Step   0
          --------


                         Geometry "geometry" -> "geometry"
                         ---------------------------------

 Output coordinates in angstroms (scale by  1.889725989 to convert to a.u.)

  No.       Tag          Charge          X              Y              Z
 ---- ---------------- ---------- -------------- -------------- --------------
    1 C                    6.0000    -0.01728558     2.04956988     0.00000000
    2 N                    7.0000     0.00349133     0.63264087     0.00000000
    3 C                    6.0000     1.15281538    -0.11890044     0.00000000
    4 C                    6.0000     0.72125653    -1.43497051     0.00000000
    5 N                    7.0000    -0.66618085    -1.39791369     0.00000000
    6 H                    1.0000    -1.27786217    -2.21089889     0.00000000
    7 C                    6.0000    -1.08846488    -0.12777343     0.00000000
    8 H                    1.0000     0.98617935     2.42098654     0.00000000
    9 H                    1.0000    -0.52686546     2.39880738     0.87365342
   10 H                    1.0000    -0.52686546     2.39880738    -0.87365342
   11 H                    1.0000     2.12662930     0.22274709     0.00000000
   12 H                    1.0000     1.31550811    -2.27870934     0.00000000
   13 H                    1.0000    -2.06782572     0.19761660     0.00000000

      Atomic Mass 
      ----------- 

      C                 12.000000
      N                 14.003070
      H                  1.007825


 Effective nuclear repulsion energy (a.u.)     238.9657066227

            Nuclear Dipole moment (a.u.) 
            ----------------------------
        X                 Y               Z
 ---------------- ---------------- ----------------
    -0.0000000000     0.0000000000     0.0000000000

      Symmetry information
      --------------------

 Group name             Cs        
 Group number              2
 Group order               2
 No. of unique centers    12

      Symmetry unique atoms

     1    2    3    4    5    6    7    8    9   11   12   13


                                 NWChem DFT Module
                                 -----------------


                     Molecular optimization: STO-3G basis set


                      Basis "ao basis" -> "ao basis" (cartesian)
                      -----
  C (Carbon)
  ----------
            Exponent  Coefficients 
       -------------- ---------------------------------------------------------
  1 S  7.16168370E+01  0.154329
  1 S  1.30450960E+01  0.535328
  1 S  3.53051220E+00  0.444635

  2 S  2.94124940E+00 -0.099967
  2 S  6.83483100E-01  0.399513
  2 S  2.22289900E-01  0.700115

  3 P  2.94124940E+00  0.155916
  3 P  6.83483100E-01  0.607684
  3 P  2.22289900E-01  0.391957

  N (Nitrogen)
  ------------
            Exponent  Coefficients 
       -------------- ---------------------------------------------------------
  1 S  9.91061690E+01  0.154329
  1 S  1.80523120E+01  0.535328
  1 S  4.88566020E+00  0.444635

  2 S  3.78045590E+00 -0.099967
  2 S  8.78496600E-01  0.399513
  2 S  2.85714400E-01  0.700115

  3 P  3.78045590E+00  0.155916
  3 P  8.78496600E-01  0.607684
  3 P  2.85714400E-01  0.391957

  H (Hydrogen)
  ------------
            Exponent  Coefficients 
       -------------- ---------------------------------------------------------
  1 S  3.42525091E+00  0.154329
  1 S  6.23913730E-01  0.535328
  1 S  1.68855400E-01  0.444635



 Summary of "ao basis" -> "ao basis" (cartesian)
 ------------------------------------------------------------------------------
       Tag                 Description            Shells   Functions and Types
 ---------------- ------------------------------  ------  ---------------------
 C                           sto-3g                  3        5   2s1p
 N                           sto-3g                  3        5   2s1p
 H                           sto-3g                  1        1   1s




 Summary of "ao basis" -> "ao basis" (cartesian)
 ------------------------------------------------------------------------------
       Tag                 Description            Shells   Functions and Types
 ---------------- ------------------------------  ------  ---------------------
 C                           sto-3g                  3        5   2s1p
 N                           sto-3g                  3        5   2s1p
 H                           sto-3g                  1        1   1s


      Symmetry analysis of basis
      --------------------------

        a'         30
        a"          7


 solvent parameters
 solvname_short: h2o     
 solvname_long:  water                              
 dielec:       78.4000
 dielecinf:     1.7769

          ---------------
          -cosmo- solvent
          ---------------
 Cosmo: York-Karplus, doi: 10.1021/jp992097l
 dielectric constant -eps-     =  78.40
 screen = (eps-1)/(eps    )    =   0.98724
 surface charge correction     = lagrangian
 -lineq- algorithm             =   0
 -bem- low  level              =   2
 -bem- from -octahedral-
 gaussian surface charge width =   0.98000
 degree of switching           =   1.00000
 switching function tolerance  =   0.00010
 atomic radii = 
 --------------
    1  6.000  2.000
    2  7.000  1.830
    3  6.000  2.000
    4  6.000  2.000
    5  7.000  1.830
    6  1.000  1.300
    7  6.000  2.000
    8  1.000  1.300
    9  1.000  1.300
   10  1.000  1.300
   11  1.000  1.300
   12  1.000  1.300
   13  1.000  1.300

 solvent accessible surface
 --------------------------

 ---------- ATOMIC COORDINATES (A.U.) ------------ VDWR(ANG.) --
     1   -0.03266501    3.87312546    0.00000000     2.000
     2    0.00659766    1.19551789    0.00000000     1.830
     3    2.17850518   -0.22468925    0.00000000     2.000
     4    1.36297722   -2.71170106    0.00000000     2.000
     5   -1.25889927   -2.64167383    0.00000000     1.830
     6   -2.41480936   -4.17799309    0.00000000     1.300
     7   -2.05690038   -0.24145677    0.00000000     2.000
     8    1.86360875    4.57500117    0.00000000     1.300
     9   -0.99563135    4.53308865    1.65096558     1.300
    10   -0.99563135    4.53308865   -1.65096558     1.300
    11    4.01874666    0.42093097    0.00000000     1.300
    12    2.48594986   -4.30613626    0.00000000     1.300
    13   -3.90762401    0.37344123    0.00000000     1.300
 number of segments per atom =         32
 number of   points per atom =         32
 atom (   nspa,  nppa )
 ----------------------
    1 (     18,     0 )       0
    2 (      8,     0 )       0
    3 (     14,     0 )       0
    4 (     16,     0 )       0
    5 (     14,     0 )       0
    6 (     16,     0 )       0
    7 (     14,     0 )       0
    8 (     14,     0 )       0
    9 (     14,     0 )       0
   10 (     14,     0 )       0
   11 (     14,     0 )       0
   12 (     14,     0 )       0
   13 (     14,     0 )       0
 number of -cosmo- surface points =      184
 molecular surface =    129.407 angstrom**2
 molecular volume  =     75.813 angstrom**3
 G(cav/disp)       =      1.507 kcal/mol
 ...... end of -cosmo- initialization ......


  Caching 1-el integrals 

            General Information
            -------------------
          SCF calculation type: DFT
          Wavefunction type:  closed shell.
          No. of atoms     :    13
          No. of electrons :    44
           Alpha electrons :    22
            Beta electrons :    22
          Charge           :     1
          Spin multiplicity:     1
          Use of symmetry is: on ; symmetry adaption is: on 
          Maximum number of iterations: 199
          AO basis - number of functions:    37
                     number of shells:    25
          Convergence on energy requested:  1.00D-06
          Convergence on density requested:  1.00D-05
          Convergence on gradient requested:  5.00D-04

              XC Information
              --------------
                         B3LYP Method XC Potential
                     Hartree-Fock (Exact) Exchange  0.200          
                        Slater Exchange Functional  0.800 local    
                    Becke 1988 Exchange Functional  0.720 non-local
              Lee-Yang-Parr Correlation Functional  0.810          
                  VWN I RPA Correlation Functional  0.190 local    

             Grid Information
             ----------------
          Grid used for XC integration:  medium    
          Radial quadrature: Mura-Knowles        
          Angular quadrature: Lebedev. 
          Tag              B.-S. Rad. Rad. Pts. Rad. Cut. Ang. Pts.
          ---              ---------- --------- --------- ---------
          C                   0.70       49          11.0       434
          N                   0.65       49          10.0       434
          H                   0.35       45          12.0       434
          Grid pruning is: on 
          Number of quadrature shells:   564
          Spatial weights used:  Erf1

          Convergence Information
          -----------------------
          Convergence aids based upon iterative change in 
          total energy or number of iterations. 
          Levelshifting, if invoked, occurs when the 
          HOMO/LUMO gap drops below (HL_TOL):  1.00D-02
          DIIS, if invoked, will attempt to extrapolate 
          using up to (NFOCK): 10 stored Fock matrices.

                    Damping( 0%)  Levelshifting(0.5)       DIIS
                  --------------- ------------------- ---------------
          dE  on:    start            ASAP                start   
          dE off:    2 iters        199 iters           199 iters 


      Screening Tolerance Information
      -------------------------------
          Density screening/tol_rho:  1.00D-10
          AO Gaussian exp screening on grid/accAOfunc:  14
          CD Gaussian exp screening on grid/accCDfunc:  20
          XC Gaussian exp screening on grid/accXCfunc:  20
          Schwarz screening/accCoul:  1.00D-08


      Superposition of Atomic Density Guess
      -------------------------------------

 Sum of atomic energies:        -259.21147401

 Renormalizing density from      45.00 to     44

      Non-variational initial energy
      ------------------------------

 Total energy =    -257.710105
 1-e energy   =    -811.163795
 2-e energy   =     314.487984
 HOMO         =      -0.357387
 LUMO         =      -0.058237


      Symmetry analysis of molecular orbitals - initial
      -------------------------------------------------

  Numbering of irreducible representations: 

     1 a'          2 a"      

  Orbital symmetries:

     1 a'          2 a'          3 a'          4 a'          5 a'      
     6 a'          7 a'          8 a'          9 a'         10 a'      
    11 a'         12 a'         13 a'         14 a"         15 a'      
    16 a'         17 a'         18 a'         19 a"         20 a'      
    21 a"         22 a"         23 a"         24 a"         25 a'      
    26 a'         27 a'         28 a'         29 a'         30 a'      
    31 a"         32 a'      

   Time after variat. SCF:      0.8
   Time prior to 1st pass:      0.8

 #quartets = 4.217D+04 #integrals = 1.412D+05 #direct =  0.0% #cached =100.0%


 Integral file          = ./midz.aoints.0
 Record size in doubles =  65536        No. of integs per rec  =  43688
 Max. records in memory =      3        Max. records in file   =  67586
 No. of bits per label  =      8        No. of bits per value  =     64


File balance: exchanges=     0  moved=     0  time=   0.0


 Grid_pts file          = ./midz.gridpts.0
 Record size in doubles =  12289        No. of grid_pts per rec  =   3070
 Max. records in memory =     23        Max. recs in file   =    360434


           Memory utilization after 1st SCF pass: 
           Heap Space remaining (MW):      133.73           133734314
          Stack Space remaining (MW):      134.22           134217180

   convergence    iter        energy       DeltaE   RMS-Dens  Diis-err    time
 ---------------- ----- ----------------- --------- --------- ---------  ------
     COSMO gas phase
 d= 0,ls=0.0,diis     1   -262.5572437430 -5.02D+02  2.47D-02  3.21D-01     1.8
 d= 0,ls=0.0,diis     2   -262.5648246599 -7.58D-03  1.63D-02  2.17D-01     1.9
 d= 0,ls=0.0,diis     3   -262.5922027481 -2.74D-02  5.51D-03  3.56D-02     2.1
 d= 0,ls=0.0,diis     4   -262.5977529932 -5.55D-03  1.15D-03  1.63D-03     2.2
 d= 0,ls=0.0,diis     5   -262.5979948221 -2.42D-04  2.70D-04  8.47D-05     2.3
  Resetting Diis
 d= 0,ls=0.0,diis     6   -262.5980063323 -1.15D-05  9.20D-05  8.55D-06     2.5
 d= 0,ls=0.0,diis     7   -262.5980075166 -1.18D-06  6.02D-05  8.65D-07     2.6
 d= 0,ls=0.0,diis     8   -262.5980073852  1.31D-07  3.67D-05  1.62D-06     2.8
 d= 0,ls=0.0,diis     9   -262.5980076648 -2.80D-07  4.05D-06  2.14D-08     2.9

           Memory utilization after 1st SCF pass: 
           Heap Space remaining (MW):      133.73           133733746
          Stack Space remaining (MW):      134.22           134217180

   convergence    iter        energy       DeltaE   RMS-Dens  Diis-err    time
 ---------------- ----- ----------------- --------- --------- ---------  ------
     COSMO solvation phase
 d= 0,ls=0.0,diis     1   -262.6879313579 -8.99D-02  2.10D-03  9.84D-04     3.1
 d= 0,ls=0.0,diis     2   -262.6881507343 -2.19D-04  9.59D-04  6.37D-04     3.3
 d= 0,ls=0.0,diis     3   -262.6882543474 -1.04D-04  2.56D-04  6.26D-05     3.5
 d= 0,ls=0.0,diis     4   -262.6882656181 -1.13D-05  5.70D-05  5.62D-06     3.7
 d= 0,ls=0.0,diis     5   -262.6882658048 -1.87D-07  7.81D-06  3.45D-08     4.0


         Total DFT energy =     -262.688265804838
      One electron energy =     -808.895384225893
           Coulomb energy =      352.683010347195
    Exchange-Corr. energy =      -37.707736223383
 Nuclear repulsion energy =      238.965706622661

             COSMO energy =       -7.733862325417

 Numeric. integr. density =       44.000005624760

     Total iterative time =      3.2s


                                   COSMO solvation results
                                   -----------------------

                 gas phase energy =      -262.598007664822
                 sol phase energy =      -262.688265804838
 (electrostatic) solvation energy =         0.090258140016 (   56.64 kcal/mol)

                  Occupations of the irreducible representations
                  ----------------------------------------------

                     irrep           alpha         beta
                     --------     --------     --------
                     a'               18.0         18.0
                     a"                4.0          4.0


                       DFT Final Molecular Orbital Analysis
                       ------------------------------------

 Vector    1  Occ=2.000000D+00  E=-1.435029D+01  Symmetry=a'
              MO Center=  3.5D-03,  6.3D-01,  3.6D-20, r^2= 2.0D-02
   Bfn.  Coefficient  Atom+Function         Bfn.  Coefficient  Atom+Function  
  ----- ------------  ---------------      ----- ------------  ---------------
     6      0.992093   2 N  s                 7      0.039174   2 N  s         

 Vector    2  Occ=2.000000D+00  E=-1.433716D+01  Symmetry=a'
              MO Center= -6.7D-01, -1.4D+00,  4.5D-23, r^2= 2.0D-02
   Bfn.  Coefficient  Atom+Function         Bfn.  Coefficient  Atom+Function  
  ----- ------------  ---------------      ----- ------------  ---------------
    21      0.992200   5 N  s                22      0.038492   5 N  s         

 Vector    3  Occ=2.000000D+00  E=-1.018247D+01  Symmetry=a'
              MO Center= -1.1D+00, -1.3D-01,  1.3D-21, r^2= 2.8D-02
   Bfn.  Coefficient  Atom+Function         Bfn.  Coefficient  Atom+Function  
  ----- ------------  ---------------      ----- ------------  ---------------
    27      0.990818   7 C  s                28      0.042710   7 C  s         

 Vector    4  Occ=2.000000D+00  E=-1.011409D+01  Symmetry=a'
              MO Center=  7.6D-01, -1.3D+00,  7.0D-19, r^2= 1.8D-01
   Bfn.  Coefficient  Atom+Function         Bfn.  Coefficient  Atom+Function  
  ----- ------------  ---------------      ----- ------------  ---------------
    16      0.946789   4 C  s                11     -0.290438   3 C  s         
    17      0.044428   4 C  s         

 Vector    5  Occ=2.000000D+00  E=-1.011306D+01  Symmetry=a'
              MO Center=  1.1D+00, -2.3D-01, -1.9D-18, r^2= 1.8D-01
   Bfn.  Coefficient  Atom+Function         Bfn.  Coefficient  Atom+Function  
  ----- ------------  ---------------      ----- ------------  ---------------
    11      0.947073   3 C  s                16      0.291721   4 C  s         
    12      0.038907   3 C  s         

 Vector    6  Occ=2.000000D+00  E=-1.010903D+01  Symmetry=a'
              MO Center= -1.7D-02,  2.0D+00, -6.8D-19, r^2= 2.9D-02
   Bfn.  Coefficient  Atom+Function         Bfn.  Coefficient  Atom+Function  
  ----- ------------  ---------------      ----- ------------  ---------------
     1      0.990135   1 C  s                 2      0.047059   1 C  s         

 Vector    7  Occ=2.000000D+00  E=-1.084284D+00  Symmetry=a'
              MO Center= -2.2D-01, -2.2D-01,  4.6D-18, r^2= 1.4D+00
   Bfn.  Coefficient  Atom+Function         Bfn.  Coefficient  Atom+Function  
  ----- ------------  ---------------      ----- ------------  ---------------
     7      0.471827   2 N  s                22      0.379755   5 N  s         
    28      0.237131   7 C  s                 6     -0.151660   2 N  s         
    12      0.142799   3 C  s                17      0.127371   4 C  s         
    21     -0.122423   5 N  s                27     -0.113485   7 C  s         
    29      0.102826   7 C  px                2      0.082997   1 C  s         

 Vector    8  Occ=2.000000D+00  E=-9.594177D-01  Symmetry=a'
              MO Center= -3.1D-01, -3.4D-01,  1.8D-18, r^2= 2.2D+00
   Bfn.  Coefficient  Atom+Function         Bfn.  Coefficient  Atom+Function  
  ----- ------------  ---------------      ----- ------------  ---------------
    22      0.564739   5 N  s                 7     -0.489672   2 N  s         
     2     -0.173255   1 C  s                21     -0.169568   5 N  s         
     6      0.146610   2 N  s                30     -0.146100   7 C  py        
    17      0.136744   4 C  s                12     -0.089240   3 C  s         
    26      0.089537   6 H  s                18     -0.083841   4 C  px        

 Vector    9  Occ=2.000000D+00  E=-8.011459D-01  Symmetry=a'
              MO Center=  2.1D-01, -3.1D-01,  7.1D-17, r^2= 2.4D+00
   Bfn.  Coefficient  Atom+Function         Bfn.  Coefficient  Atom+Function  
  ----- ------------  ---------------      ----- ------------  ---------------
    12      0.408609   3 C  s                17      0.344996   4 C  s         
    28     -0.298528   7 C  s                 8      0.224303   2 N  px        
    23      0.186762   5 N  px                2     -0.166998   1 C  s         
    11     -0.155257   3 C  s                22     -0.151176   5 N  s         
     9     -0.129724   2 N  py               16     -0.130313   4 C  s         

 Vector   10  Occ=2.000000D+00  E=-7.599022D-01  Symmetry=a'
              MO Center= -1.8D-01,  6.6D-01,  9.6D-17, r^2= 3.2D+00
   Bfn.  Coefficient  Atom+Function         Bfn.  Coefficient  Atom+Function  
  ----- ------------  ---------------      ----- ------------  ---------------
     2      0.462556   1 C  s                 9      0.317239   2 N  py        
    28     -0.298624   7 C  s                22      0.246891   5 N  s         
    24     -0.198236   5 N  py                1     -0.165670   1 C  s         
    17      0.143502   4 C  s                 8      0.133652   2 N  px        
    32      0.118550   8 H  s                26      0.108195   6 H  s         

 Vector   11  Occ=2.000000D+00  E=-6.610232D-01  Symmetry=a'
              MO Center=  1.3D-01, -4.5D-01,  2.5D-16, r^2= 3.0D+00
   Bfn.  Coefficient  Atom+Function         Bfn.  Coefficient  Atom+Function  
  ----- ------------  ---------------      ----- ------------  ---------------
    17      0.397070   4 C  s                 8     -0.348144   2 N  px        
    23      0.305014   5 N  px               14     -0.223589   3 C  py        
    12     -0.219317   3 C  s                30      0.175446   7 C  py        
    22     -0.174278   5 N  s                36      0.155417  12 H  s         
    26     -0.152992   6 H  s                16     -0.135628   4 C  s         

 Vector   12  Occ=2.000000D+00  E=-6.282932D-01  Symmetry=a'
              MO Center= -9.8D-02, -1.4D-01, -1.3D-15, r^2= 3.8D+00
   Bfn.  Coefficient  Atom+Function         Bfn.  Coefficient  Atom+Function  
  ----- ------------  ---------------      ----- ------------  ---------------
     7      0.325180   2 N  s                28     -0.305412   7 C  s         
    12     -0.295526   3 C  s                24     -0.263195   5 N  py        
     2     -0.212348   1 C  s                29      0.211614   7 C  px        
    37     -0.191544  13 H  s                18     -0.175599   4 C  px        
    35     -0.168524  11 H  s                23      0.166886   5 N  px        

 Vector   13  Occ=2.000000D+00  E=-6.047864D-01  Symmetry=a'
              MO Center= -2.7D-01, -3.7D-01, -1.6D-16, r^2= 4.1D+00
   Bfn.  Coefficient  Atom+Function         Bfn.  Coefficient  Atom+Function  
  ----- ------------  ---------------      ----- ------------  ---------------
    24      0.367524   5 N  py               30     -0.228940   7 C  py        
     2      0.226717   1 C  s                29      0.213143   7 C  px        
    26     -0.206603   6 H  s                37     -0.172658  13 H  s         
    23      0.169266   5 N  px               18     -0.156334   4 C  px        
    36     -0.154795  12 H  s                19      0.148069   4 C  py        

 Vector   14  Occ=2.000000D+00  E=-5.064398D-01  Symmetry=a'
              MO Center= -3.5D-01,  1.7D-01,  0.0D+00, r^2= 3.7D+00
   Bfn.  Coefficient  Atom+Function         Bfn.  Coefficient  Atom+Function  
  ----- ------------  ---------------      ----- ------------  ---------------
     9      0.308064   2 N  py                8      0.298130   2 N  px        
    29     -0.281611   7 C  px               24      0.247333   5 N  py        
     4     -0.240521   1 C  py               26     -0.234160   6 H  s         
    23      0.206636   5 N  px               37      0.191468  13 H  s         
     3      0.178437   1 C  px               12     -0.157192   3 C  s         

 Vector   15  Occ=2.000000D+00  E=-5.025102D-01  Symmetry=a"
              MO Center= -1.7D-01,  6.9D-01,  3.9D-15, r^2= 2.4D+00
   Bfn.  Coefficient  Atom+Function         Bfn.  Coefficient  Atom+Function  
  ----- ------------  ---------------      ----- ------------  ---------------
    10      0.486474   2 N  pz                5      0.349133   1 C  pz        
    31      0.296089   7 C  pz               25      0.261952   5 N  pz        
    15      0.200591   3 C  pz               33      0.185455   9 H  s         
    34     -0.185455  10 H  s                20      0.149901   4 C  pz        

 Vector   16  Occ=2.000000D+00  E=-4.896740D-01  Symmetry=a'
              MO Center=  3.3D-02,  3.1D-01, -2.8D-15, r^2= 3.3D+00
   Bfn.  Coefficient  Atom+Function         Bfn.  Coefficient  Atom+Function  
  ----- ------------  ---------------      ----- ------------  ---------------
    13      0.380924   3 C  px                9      0.314963   2 N  py        
    24      0.270226   5 N  py               29      0.271119   7 C  px        
    37     -0.261297  13 H  s                35      0.254747  11 H  s         
     4     -0.249345   1 C  py                8     -0.224649   2 N  px        
    30     -0.167840   7 C  py               32     -0.122647   8 H  s         

 Vector   17  Occ=2.000000D+00  E=-4.807878D-01  Symmetry=a'
              MO Center=  4.5D-01, -1.1D+00, -9.3D-17, r^2= 2.9D+00
   Bfn.  Coefficient  Atom+Function         Bfn.  Coefficient  Atom+Function  
  ----- ------------  ---------------      ----- ------------  ---------------
    23     -0.393479   5 N  px               18      0.380720   4 C  px        
    36      0.342858  12 H  s                30     -0.215770   7 C  py        
    19     -0.212817   4 C  py               35     -0.205323  11 H  s         
    13     -0.172858   3 C  px               37     -0.170281  13 H  s         
    29      0.157332   7 C  px               12     -0.151008   3 C  s         

 Vector   18  Occ=2.000000D+00  E=-4.489966D-01  Symmetry=a'
              MO Center=  6.9D-01,  1.8D-01,  5.3D-18, r^2= 3.3D+00
   Bfn.  Coefficient  Atom+Function         Bfn.  Coefficient  Atom+Function  
  ----- ------------  ---------------      ----- ------------  ---------------
    19      0.390162   4 C  py               14     -0.351103   3 C  py        
     9      0.286666   2 N  py               32     -0.252729   8 H  s         
     3     -0.243920   1 C  px                4     -0.240159   1 C  py        
    35     -0.225599  11 H  s                13     -0.208663   3 C  px        
    23     -0.172382   5 N  px               36     -0.167550  12 H  s         

 Vector   19  Occ=2.000000D+00  E=-4.251382D-01  Symmetry=a"
              MO Center= -3.2D-01,  5.8D-01,  1.0D-15, r^2= 4.0D+00
   Bfn.  Coefficient  Atom+Function         Bfn.  Coefficient  Atom+Function  
  ----- ------------  ---------------      ----- ------------  ---------------
    25     -0.475825   5 N  pz                5      0.441651   1 C  pz        
    33      0.281532   9 H  s                34     -0.281532  10 H  s         
    31     -0.265930   7 C  pz               20     -0.247936   4 C  pz        
    15     -0.131044   3 C  pz               10     -0.035113   2 N  pz        

 Vector   20  Occ=2.000000D+00  E=-4.071906D-01  Symmetry=a'
              MO Center=  2.8D-01,  1.4D+00, -1.1D-15, r^2= 3.2D+00
   Bfn.  Coefficient  Atom+Function         Bfn.  Coefficient  Atom+Function  
  ----- ------------  ---------------      ----- ------------  ---------------
     3      0.515098   1 C  px               32      0.378733   8 H  s         
    14     -0.275051   3 C  py               19      0.249686   4 C  py        
     8     -0.223898   2 N  px               33     -0.219205   9 H  s         
    34     -0.219205  10 H  s                36     -0.138920  12 H  s         
    30      0.107218   7 C  py                9      0.100223   2 N  py        

 Vector   21  Occ=2.000000D+00  E=-3.096162D-01  Symmetry=a"
              MO Center= -1.4D-01,  5.8D-02,  2.8D-18, r^2= 2.7D+00
   Bfn.  Coefficient  Atom+Function         Bfn.  Coefficient  Atom+Function  
  ----- ------------  ---------------      ----- ------------  ---------------
    10      0.604285   2 N  pz               25     -0.589567   5 N  pz        
    15      0.308848   3 C  pz                5     -0.223319   1 C  pz        
    33     -0.212022   9 H  s                34      0.212022  10 H  s         
    20     -0.147388   4 C  pz        

 Vector   22  Occ=2.000000D+00  E=-2.534104D-01  Symmetry=a"
              MO Center=  3.3D-01, -5.7D-01,  1.0D-16, r^2= 2.1D+00
   Bfn.  Coefficient  Atom+Function         Bfn.  Coefficient  Atom+Function  
  ----- ------------  ---------------      ----- ------------  ---------------
    20      0.567760   4 C  pz               15      0.529561   3 C  pz        
    31     -0.518893   7 C  pz               10     -0.183470   2 N  pz        
    25     -0.088491   5 N  pz                5      0.054092   1 C  pz        
    33      0.049444   9 H  s                34     -0.049444  10 H  s         

 Vector   23  Occ=0.000000D+00  E= 2.037700D-02  Symmetry=a"
              MO Center= -6.1D-01, -2.6D-01,  1.0D-16, r^2= 1.7D+00
   Bfn.  Coefficient  Atom+Function         Bfn.  Coefficient  Atom+Function  
  ----- ------------  ---------------      ----- ------------  ---------------
    31      0.807958   7 C  pz               25     -0.572846   5 N  pz        
    10     -0.557759   2 N  pz               20      0.252990   4 C  pz        
    15      0.200857   3 C  pz               33      0.128863   9 H  s         
    34     -0.128863  10 H  s                 5     -0.032131   1 C  pz        

 Vector   24  Occ=0.000000D+00  E= 6.721005D-02  Symmetry=a"
              MO Center=  7.8D-01, -6.9D-01,  1.4D-16, r^2= 1.6D+00
   Bfn.  Coefficient  Atom+Function         Bfn.  Coefficient  Atom+Function  
  ----- ------------  ---------------      ----- ------------  ---------------
    15      0.782614   3 C  pz               20     -0.770877   4 C  pz        
    10     -0.344790   2 N  pz               25      0.314285   5 N  pz        
    33      0.072567   9 H  s                34     -0.072567  10 H  s         

 Vector   25  Occ=0.000000D+00  E= 2.531772D-01  Symmetry=a'
              MO Center= -3.8D-01, -7.0D-01,  2.4D-17, r^2= 3.9D+00
   Bfn.  Coefficient  Atom+Function         Bfn.  Coefficient  Atom+Function  
  ----- ------------  ---------------      ----- ------------  ---------------
    22      0.985936   5 N  s                26     -0.822694   6 H  s         
     7      0.742783   2 N  s                 4      0.567208   1 C  py        
    18      0.419463   4 C  px                2     -0.287616   1 C  s         
    13      0.288894   3 C  px               28     -0.273618   7 C  s         
    24     -0.256415   5 N  py               17     -0.224661   4 C  s         

 Vector   26  Occ=0.000000D+00  E= 2.837300D-01  Symmetry=a'
              MO Center=  4.2D-02,  1.9D-02, -2.3D-17, r^2= 2.9D+00
   Bfn.  Coefficient  Atom+Function         Bfn.  Coefficient  Atom+Function  
  ----- ------------  ---------------      ----- ------------  ---------------
    12      0.632876   3 C  s                14      0.534578   3 C  py        
    23     -0.521538   5 N  px                8     -0.491702   2 N  px        
     7     -0.423882   2 N  s                30      0.406950   7 C  py        
    37     -0.408362  13 H  s                13     -0.399954   3 C  px        
     9      0.357966   2 N  py               26     -0.353317   6 H  s         

 Vector   27  Occ=0.000000D+00  E= 2.915736D-01  Symmetry=a'
              MO Center= -1.0D-01, -5.1D-01, -7.8D-18, r^2= 2.7D+00
   Bfn.  Coefficient  Atom+Function         Bfn.  Coefficient  Atom+Function  
  ----- ------------  ---------------      ----- ------------  ---------------
     7      0.791660   2 N  s                22     -0.658048   5 N  s         
    30     -0.653907   7 C  py               17      0.600554   4 C  s         
    18     -0.517813   4 C  px               29     -0.434972   7 C  px        
    36     -0.382686  12 H  s                23     -0.358934   5 N  px        
     4      0.311205   1 C  py               19     -0.298654   4 C  py        

 Vector   28  Occ=0.000000D+00  E= 3.229961D-01  Symmetry=a'
              MO Center= -3.1D-01,  8.8D-02, -5.2D-17, r^2= 4.0D+00
   Bfn.  Coefficient  Atom+Function         Bfn.  Coefficient  Atom+Function  
  ----- ------------  ---------------      ----- ------------  ---------------
     4      0.782082   1 C  py               26      0.719749   6 H  s         
     9      0.647155   2 N  py               24      0.494050   5 N  py        
     7      0.393615   2 N  s                22     -0.385060   5 N  s         
     2     -0.355118   1 C  s                17      0.347751   4 C  s         
    14      0.246393   3 C  py               30      0.238009   7 C  py        

 Vector   29  Occ=0.000000D+00  E= 3.429017D-01  Symmetry=a'
              MO Center= -4.8D-01, -4.6D-02, -9.2D-17, r^2= 3.7D+00
   Bfn.  Coefficient  Atom+Function         Bfn.  Coefficient  Atom+Function  
  ----- ------------  ---------------      ----- ------------  ---------------
    28      1.252931   7 C  s                37     -0.765910  13 H  s         
     7     -0.473073   2 N  s                24     -0.463356   5 N  py        
    36     -0.446080  12 H  s                35     -0.424854  11 H  s         
    32     -0.361196   8 H  s                12      0.357433   3 C  s         
     3      0.327394   1 C  px               22     -0.314531   5 N  s         

 Vector   30  Occ=0.000000D+00  E= 4.106124D-01  Symmetry=a'
              MO Center=  1.4D-03,  2.9D-01, -2.9D-15, r^2= 4.3D+00
   Bfn.  Coefficient  Atom+Function         Bfn.  Coefficient  Atom+Function  
  ----- ------------  ---------------      ----- ------------  ---------------
    12      0.700905   3 C  s                17     -0.690098   4 C  s         
    23      0.646758   5 N  px                3     -0.582832   1 C  px        
    30     -0.548026   7 C  py               35     -0.528170  11 H  s         
    33     -0.445690   9 H  s                34     -0.445690  10 H  s         
    32      0.394586   8 H  s                28      0.292586   7 C  s         

 Vector   31  Occ=0.000000D+00  E= 4.316359D-01  Symmetry=a"
              MO Center= -2.8D-01,  2.2D+00,  2.9D-15, r^2= 1.3D+00
   Bfn.  Coefficient  Atom+Function         Bfn.  Coefficient  Atom+Function  
  ----- ------------  ---------------      ----- ------------  ---------------
     5      1.115786   1 C  pz               33     -0.880841   9 H  s         
    34      0.880841  10 H  s                10     -0.221044   2 N  pz        
    31      0.085933   7 C  pz               15      0.049612   3 C  pz        

 Vector   32  Occ=0.000000D+00  E= 4.474472D-01  Symmetry=a'
              MO Center=  8.0D-01, -4.0D-01,  3.3D-17, r^2= 4.9D+00
   Bfn.  Coefficient  Atom+Function         Bfn.  Coefficient  Atom+Function  
  ----- ------------  ---------------      ----- ------------  ---------------
    36     -0.935286  12 H  s                17      0.903223   4 C  s         
    32      0.652662   8 H  s                18      0.495048   4 C  px        
     2     -0.455262   1 C  s                 3     -0.424259   1 C  px        
    37      0.388272  13 H  s                14      0.368870   3 C  py        
    35     -0.343362  11 H  s                13      0.325364   3 C  px        

 Vector   33  Occ=0.000000D+00  E= 4.541876D-01  Symmetry=a'
              MO Center=  4.6D-01,  3.7D-01,  1.0D-17, r^2= 4.0D+00
   Bfn.  Coefficient  Atom+Function         Bfn.  Coefficient  Atom+Function  
  ----- ------------  ---------------      ----- ------------  ---------------
    12      0.959012   3 C  s                35     -0.740901  11 H  s         
    28     -0.677565   7 C  s                37      0.632939  13 H  s         
    32     -0.596253   8 H  s                 3      0.485630   1 C  px        
    19     -0.448777   4 C  py                2      0.394044   1 C  s         
     8     -0.379105   2 N  px               13      0.313243   3 C  px        

 Vector   34  Occ=0.000000D+00  E= 4.771613D-01  Symmetry=a'
              MO Center= -7.5D-02,  1.7D+00, -8.5D-17, r^2= 3.4D+00
   Bfn.  Coefficient  Atom+Function         Bfn.  Coefficient  Atom+Function  
  ----- ------------  ---------------      ----- ------------  ---------------
     2      1.374615   1 C  s                33     -0.763810   9 H  s         
    34     -0.763810  10 H  s                32     -0.479678   8 H  s         
    17      0.446925   4 C  s                12     -0.414195   3 C  s         
    36     -0.335897  12 H  s                 7     -0.295969   2 N  s         
    35      0.271089  11 H  s                 4      0.265716   1 C  py        

 Vector   35  Occ=0.000000D+00  E= 5.342579D-01  Symmetry=a'
              MO Center=  3.6D-01, -8.3D-02,  2.5D-17, r^2= 2.7D+00
   Bfn.  Coefficient  Atom+Function         Bfn.  Coefficient  Atom+Function  
  ----- ------------  ---------------      ----- ------------  ---------------
    14      0.807906   3 C  py                8     -0.694541   2 N  px        
    30     -0.626401   7 C  py               18      0.542908   4 C  px        
    19      0.496195   4 C  py                3      0.424007   1 C  px        
    32     -0.417801   8 H  s                24     -0.397392   5 N  py        
    17      0.357971   4 C  s                13     -0.314680   3 C  px        

 Vector   36  Occ=0.000000D+00  E= 6.228257D-01  Symmetry=a'
              MO Center= -6.5D-01, -2.2D-01, -4.6D-18, r^2= 2.0D+00
   Bfn.  Coefficient  Atom+Function         Bfn.  Coefficient  Atom+Function  
  ----- ------------  ---------------      ----- ------------  ---------------
    29      1.087276   7 C  px                9      0.706121   2 N  py        
    37      0.690194  13 H  s                24     -0.635623   5 N  py        
    22     -0.387189   5 N  s                28      0.379198   7 C  s         
     7     -0.373788   2 N  s                26     -0.352461   6 H  s         
     2     -0.345254   1 C  s                30     -0.313730   7 C  py        

 Vector   37  Occ=0.000000D+00  E= 6.826174D-01  Symmetry=a'
              MO Center=  8.3D-01, -6.8D-01,  3.6D-19, r^2= 1.8D+00
   Bfn.  Coefficient  Atom+Function         Bfn.  Coefficient  Atom+Function  
  ----- ------------  ---------------      ----- ------------  ---------------
    13      0.990210   3 C  px               19      0.933725   4 C  py        
    35     -0.635319  11 H  s                36      0.612038  12 H  s         
    18     -0.474910   4 C  px               14      0.457210   3 C  py        
    12     -0.420117   3 C  s                 9     -0.409904   2 N  py        
    17      0.391794   4 C  s                23     -0.340567   5 N  px        


 center of mass
 --------------
 x =  -0.00069860 y =  -0.07114407 z =   0.00000000

 moments of inertia (a.u.)
 ------------------
         491.478840667996          -0.000000000142           0.000000000000
          -0.000000000142         206.982264590207           0.000000000000
           0.000000000000           0.000000000000         687.473041905578

     Multipole analysis of the density
     ---------------------------------

     L   x y z        total         alpha         beta         nuclear
     -   - - -        -----         -----         ----         -------
     0   0 0 0      1.000000    -22.000000    -22.000000     45.000000

     1   1 0 0     -0.637582     -0.318791     -0.318791     -0.000000
     1   0 1 0     -0.468297     -0.234148     -0.234148      0.000000
     1   0 0 1      0.000000      0.000000      0.000000      0.000000

     2   2 0 0    -17.083991    -71.038888    -71.038888    124.993786
     2   1 1 0      1.660506      1.051049      1.051049     -0.441591
     2   1 0 1     -0.000000     -0.000000     -0.000000      0.000000
     2   0 2 0    -13.231149   -152.603917   -152.603917    291.976684
     2   0 1 1      0.000000      0.000000      0.000000      0.000000
     2   0 0 2    -25.166862    -15.309119    -15.309119      5.451375


 Parallel integral file used       4 records with       0 large values


            General Information
            -------------------
          SCF calculation type: DFT
          Wavefunction type:  closed shell.
          No. of atoms     :    13
          No. of electrons :    44
           Alpha electrons :    22
            Beta electrons :    22
          Charge           :     1
          Spin multiplicity:     1
          Use of symmetry is: on ; symmetry adaption is: on 
          Maximum number of iterations: 199
          AO basis - number of functions:    37
                     number of shells:    25
          Convergence on energy requested:  1.00D-06
          Convergence on density requested:  1.00D-05
          Convergence on gradient requested:  5.00D-04

              XC Information
              --------------
                         B3LYP Method XC Potential
                     Hartree-Fock (Exact) Exchange  0.200          
                        Slater Exchange Functional  0.800 local    
                    Becke 1988 Exchange Functional  0.720 non-local
              Lee-Yang-Parr Correlation Functional  0.810          
                  VWN I RPA Correlation Functional  0.190 local    

             Grid Information
             ----------------
          Grid used for XC integration:  medium    
          Radial quadrature: Mura-Knowles        
          Angular quadrature: Lebedev. 
          Tag              B.-S. Rad. Rad. Pts. Rad. Cut. Ang. Pts.
          ---              ---------- --------- --------- ---------
          C                   0.70       49          11.0       434
          N                   0.65       49          10.0       434
          H                   0.35       45          12.0       434
          Grid pruning is: on 
          Number of quadrature shells:   564
          Spatial weights used:  Erf1

          Convergence Information
          -----------------------
          Convergence aids based upon iterative change in 
          total energy or number of iterations. 
          Levelshifting, if invoked, occurs when the 
          HOMO/LUMO gap drops below (HL_TOL):  1.00D-02
          DIIS, if invoked, will attempt to extrapolate 
          using up to (NFOCK): 10 stored Fock matrices.

                    Damping( 0%)  Levelshifting(0.5)       DIIS
                  --------------- ------------------- ---------------
          dE  on:    start            ASAP                start   
          dE off:    2 iters        199 iters           199 iters 


      Screening Tolerance Information
      -------------------------------
          Density screening/tol_rho:  1.00D-10
          AO Gaussian exp screening on grid/accAOfunc:  14
          CD Gaussian exp screening on grid/accCDfunc:  20
          XC Gaussian exp screening on grid/accXCfunc:  20
          Schwarz screening/accCoul:  1.00D-08



                            NWChem DFT Gradient Module
                            --------------------------


                     Molecular optimization: STO-3G basis set



  charge          =   1.00
  wavefunction    = closed shell

  Using symmetry


                         DFT ENERGY GRADIENTS

    atom               coordinates                        gradient
                 x          y          z           x          y          z
   1 C      -0.032665   3.873125   0.000000    0.002116  -0.048855   0.000000
   2 N       0.006598   1.195518   0.000000   -0.020651  -0.010248   0.000000
   3 C       2.178505  -0.224689   0.000000    0.037469   0.068234   0.000000
   4 C       1.362977  -2.711701   0.000000    0.001513  -0.054173   0.000000
   5 N      -1.258899  -2.641674   0.000000   -0.012056   0.024774   0.000000
   6 H      -2.414809  -4.177993   0.000000    0.019476   0.028138   0.000000
   7 C      -2.056900  -0.241457   0.000000   -0.010023   0.020567   0.000000
   8 H       1.863609   4.575001   0.000000   -0.025948  -0.008990   0.000000
   9 H      -0.995631   4.533089   1.650966    0.014305  -0.011862  -0.024225
  10 H      -0.995631   4.533089  -1.650966    0.014305  -0.011862   0.024225
  11 H       4.018747   0.420931   0.000000   -0.055767  -0.030306   0.000000
  12 H       2.485950  -4.306136   0.000000   -0.028420   0.057448   0.000000
  13 H      -3.907624   0.373441   0.000000    0.063680  -0.022865   0.000000

                 ----------------------------------------
                 |  Time  |  1-e(secs)   |  2-e(secs)   |
                 ----------------------------------------
                 |  CPU   |       0.06   |       0.14   |
                 ----------------------------------------
                 |  WALL  |       0.06   |       0.14   |
                 ----------------------------------------

@ Step       Energy      Delta E   Gmax     Grms     Xrms     Xmax   Walltime
@ ---- ---------------- -------- -------- -------- -------- -------- --------
@    0    -262.68826580  0.0D+00  0.06823  0.02760  0.00000  0.00000      4.7
                                                                    

 Restricting large step in mode   21 eval= 3.6D-01 step=-3.2D-01 new=-3.0D-01

                                 NWChem DFT Module
                                 -----------------


                     Molecular optimization: STO-3G basis set




 Summary of "ao basis" -> "ao basis" (cartesian)
 ------------------------------------------------------------------------------
       Tag                 Description            Shells   Functions and Types
 ---------------- ------------------------------  ------  ---------------------
 C                           sto-3g                  3        5   2s1p
 N                           sto-3g                  3        5   2s1p
 H                           sto-3g                  1        1   1s


      Symmetry analysis of basis
      --------------------------

        a'         30
        a"          7


 solvent parameters
 solvname_short: h2o     
 solvname_long:  water                              
 dielec:       78.4000
 dielecinf:     1.7769

          ---------------
          -cosmo- solvent
          ---------------
 Cosmo: York-Karplus, doi: 10.1021/jp992097l
 dielectric constant -eps-     =  78.40
 screen = (eps-1)/(eps    )    =   0.98724
 surface charge correction     = lagrangian
 -lineq- algorithm             =   0
 -bem- low  level              =   2
 -bem- from -octahedral-
 gaussian surface charge width =   0.98000
 degree of switching           =   1.00000
 switching function tolerance  =   0.00010
 atomic radii = 
 --------------
    1  6.000  2.000
    2  7.000  1.830
    3  6.000  2.000
    4  6.000  2.000
    5  7.000  1.830
    6  1.000  1.300
    7  6.000  2.000
    8  1.000  1.300
    9  1.000  1.300
   10  1.000  1.300
   11  1.000  1.300
   12  1.000  1.300
   13  1.000  1.300

 solvent accessible surface
 --------------------------

 ---------- ATOMIC COORDINATES (A.U.) ------------ VDWR(ANG.) --
     1   -0.05487775    4.02398737    0.00000000     2.000
     2    0.04007780    1.25820251    0.00000000     1.830
     3    2.17467503   -0.28590335    0.00000000     2.000
     4    1.40953303   -2.71218796    0.00000000     2.000
     5   -1.23105057   -2.70451668    0.00000000     1.830
     6   -2.42274714   -4.28386647    0.00000000     1.300
     7   -2.04564833   -0.26276651    0.00000000     2.000
     8    1.92569794    4.61760570    0.00000000     1.300
     9   -1.02882380    4.57670421    1.73513335     1.300
    10   -1.02882380    4.57670421   -1.73513335     1.300
    11    4.09585841    0.52206407    0.00000000     1.300
    12    2.43826332   -4.52935416    0.00000000     1.300
    13   -4.01790954    0.40387081    0.00000000     1.300
 number of segments per atom =         32
 number of   points per atom =         32
 atom (   nspa,  nppa )
 ----------------------
    1 (     18,     0 )       0
    2 (      8,     0 )       0
    3 (     14,     0 )       0
    4 (     16,     0 )       0
    5 (     14,     0 )       0
    6 (     18,     0 )       0
    7 (     14,     0 )       0
    8 (     14,     0 )       0
    9 (     14,     0 )       0
   10 (     14,     0 )       0
   11 (     16,     0 )       0
   12 (     16,     0 )       0
   13 (     14,     0 )       0
 number of -cosmo- surface points =      190
 molecular surface =    132.768 angstrom**2
 molecular volume  =     77.270 angstrom**3
 G(cav/disp)       =      1.524 kcal/mol
 ...... end of -cosmo- initialization ......


  Caching 1-el integrals 

            General Information
            -------------------
          SCF calculation type: DFT
          Wavefunction type:  closed shell.
          No. of atoms     :    13
          No. of electrons :    44
           Alpha electrons :    22
            Beta electrons :    22
          Charge           :     1
          Spin multiplicity:     1
          Use of symmetry is: on ; symmetry adaption is: on 
          Maximum number of iterations: 199
          AO basis - number of functions:    37
                     number of shells:    25
          Convergence on energy requested:  1.00D-06
          Convergence on density requested:  1.00D-05
          Convergence on gradient requested:  5.00D-04

              XC Information
              --------------
                         B3LYP Method XC Potential
                     Hartree-Fock (Exact) Exchange  0.200          
                        Slater Exchange Functional  0.800 local    
                    Becke 1988 Exchange Functional  0.720 non-local
              Lee-Yang-Parr Correlation Functional  0.810          
                  VWN I RPA Correlation Functional  0.190 local    

             Grid Information
             ----------------
          Grid used for XC integration:  medium    
          Radial quadrature: Mura-Knowles        
          Angular quadrature: Lebedev. 
          Tag              B.-S. Rad. Rad. Pts. Rad. Cut. Ang. Pts.
          ---              ---------- --------- --------- ---------
          C                   0.70       49          11.0       434
          N                   0.65       49          10.0       434
          H                   0.35       45          12.0       434
          Grid pruning is: on 
          Number of quadrature shells:   564
          Spatial weights used:  Erf1

          Convergence Information
          -----------------------
          Convergence aids based upon iterative change in 
          total energy or number of iterations. 
          Levelshifting, if invoked, occurs when the 
          HOMO/LUMO gap drops below (HL_TOL):  1.00D-02
          DIIS, if invoked, will attempt to extrapolate 
          using up to (NFOCK): 10 stored Fock matrices.

                    Damping( 0%)  Levelshifting(0.5)       DIIS
                  --------------- ------------------- ---------------
          dE  on:    start            ASAP                start   
          dE off:    2 iters        199 iters           199 iters 


      Screening Tolerance Information
      -------------------------------
          Density screening/tol_rho:  1.00D-10
          AO Gaussian exp screening on grid/accAOfunc:  14
          CD Gaussian exp screening on grid/accCDfunc:  20
          XC Gaussian exp screening on grid/accXCfunc:  20
          Schwarz screening/accCoul:  1.00D-08


 Loading old vectors from job with title :

Molecular optimization: STO-3G basis set


      Symmetry analysis of molecular orbitals - initial
      -------------------------------------------------

  Numbering of irreducible representations: 

     1 a'          2 a"      

  Orbital symmetries:

     1 a'          2 a'          3 a'          4 a'          5 a'      
     6 a'          7 a'          8 a'          9 a'         10 a'      
    11 a'         12 a'         13 a'         14 a'         15 a"      
    16 a'         17 a'         18 a'         19 a"         20 a'      
    21 a"         22 a"         23 a"         24 a"         25 a'      
    26 a'         27 a'         28 a'         29 a'         30 a'      
    31 a"         32 a'      

   Time after variat. SCF:      5.0
   Time prior to 1st pass:      5.0

 #quartets = 4.197D+04 #integrals = 1.403D+05 #direct =  0.0% #cached =100.0%


 Integral file          = ./midz.aoints.0
 Record size in doubles =  65536        No. of integs per rec  =  43688
 Max. records in memory =      3        Max. records in file   =  67586
 No. of bits per label  =      8        No. of bits per value  =     64


File balance: exchanges=     0  moved=     0  time=   0.0


 Grid_pts file          = ./midz.gridpts.0
 Record size in doubles =  12289        No. of grid_pts per rec  =   3070
 Max. records in memory =     23        Max. recs in file   =    360434


           Memory utilization after 1st SCF pass: 
           Heap Space remaining (MW):      133.73           133733522
          Stack Space remaining (MW):      134.22           134217180

[...]
    74      3.868640   7 C  s                24      2.657011   2 N  px        
    78      2.623858   7 C  s                63      2.213292   5 N  px        
     6      2.192412   1 C  s                67      2.017171   6 H  s         

 Vector   91  Occ=0.000000D+00  E= 1.187764D+00  Symmetry=a'
              MO Center= -3.2D-02, -8.4D-01, -1.8D-15, r^2= 5.3D+00
   Bfn.  Coefficient  Atom+Function         Bfn.  Coefficient  Atom+Function  
  ----- ------------  ---------------      ----- ------------  ---------------
    78     -5.259655   7 C  s                23      5.106965   2 N  s         
    74     -4.468925   7 C  s                49     -4.412586   4 C  s         
    10      3.804731   1 C  s                32     -3.774616   3 C  s         
    79     -3.302155   7 C  px               45     -3.015092   4 C  s         
    38     -2.919994   3 C  py               64      2.697636   5 N  py        

 Vector   92  Occ=0.000000D+00  E= 1.270813D+00  Symmetry=a'
              MO Center=  7.3D-02, -1.7D-01,  8.6D-16, r^2= 5.9D+00
   Bfn.  Coefficient  Atom+Function         Bfn.  Coefficient  Atom+Function  
  ----- ------------  ---------------      ----- ------------  ---------------
    78      6.736146   7 C  s                32     -5.467148   3 C  s         
    36     -5.478103   3 C  s                74      5.348141   7 C  s         
    24      5.081441   2 N  px               62     -3.399673   5 N  s         
    45      2.448645   4 C  s                38     -2.193850   3 C  py        
    20      2.118941   2 N  px               64     -2.085842   5 N  py        

 Vector   93  Occ=0.000000D+00  E= 1.333482D+00  Symmetry=a'
              MO Center= -6.1D-01, -4.4D-01, -4.3D-16, r^2= 5.1D+00
   Bfn.  Coefficient  Atom+Function         Bfn.  Coefficient  Atom+Function  
  ----- ------------  ---------------      ----- ------------  ---------------
    36      7.736962   3 C  s                49     -6.543448   4 C  s         
    32      4.557808   3 C  s                25      4.175849   2 N  py        
    45     -3.082166   4 C  s                23     -2.356417   2 N  s         
    10     -2.290661   1 C  s                 6     -2.128952   1 C  s         
    63      2.134636   5 N  px               99     -1.934618  13 H  s         

 Vector   94  Occ=0.000000D+00  E= 1.367541D+00  Symmetry=a'
              MO Center= -2.4D-02,  9.0D-01,  1.7D-15, r^2= 4.6D+00
   Bfn.  Coefficient  Atom+Function         Bfn.  Coefficient  Atom+Function  
  ----- ------------  ---------------      ----- ------------  ---------------
    49      5.888793   4 C  s                10      5.179776   1 C  s         
    25     -5.128793   2 N  py               36     -4.918994   3 C  s         
    23     -4.552917   2 N  s                 6      3.615107   1 C  s         
    38      3.138010   3 C  py               62     -2.991547   5 N  s         
    78      2.798637   7 C  s                45     -1.971549   4 C  s         

 Vector   95  Occ=0.000000D+00  E= 1.382134D+00  Symmetry=a'
              MO Center=  6.2D-02,  3.5D-01,  1.3D-15, r^2= 4.4D+00
   Bfn.  Coefficient  Atom+Function         Bfn.  Coefficient  Atom+Function  
  ----- ------------  ---------------      ----- ------------  ---------------
    10      3.987967   1 C  s                36     -3.618831   3 C  s         
    45      3.293270   4 C  s                49      2.852169   4 C  s         
    62     -2.745007   5 N  s                20     -2.426621   2 N  px        
    25     -2.429504   2 N  py               34      2.430722   3 C  py        
    33      2.336190   3 C  px               76     -2.090739   7 C  py        

 Vector   96  Occ=0.000000D+00  E= 1.439868D+00  Symmetry=a'
              MO Center= -1.7D-02, -1.6D+00,  2.2D-15, r^2= 4.2D+00
   Bfn.  Coefficient  Atom+Function         Bfn.  Coefficient  Atom+Function  
  ----- ------------  ---------------      ----- ------------  ---------------
    49    -12.498461   4 C  s                36     12.223577   3 C  s         
    62     11.069109   5 N  s                23     -6.875644   2 N  s         
    45     -6.622141   4 C  s                32      6.542840   3 C  s         
    47     -4.441895   4 C  py               37     -3.101561   3 C  px        
    25      3.006800   2 N  py               78     -2.863480   7 C  s         

 Vector   97  Occ=0.000000D+00  E= 1.635415D+00  Symmetry=a'
              MO Center=  2.7D-02, -2.4D-01, -8.7D-16, r^2= 3.9D+00
   Bfn.  Coefficient  Atom+Function         Bfn.  Coefficient  Atom+Function  
  ----- ------------  ---------------      ----- ------------  ---------------
    36     11.948955   3 C  s                49     -9.086431   4 C  s         
    25      7.940879   2 N  py               74      6.925700   7 C  s         
    10     -6.035475   1 C  s                21      5.875703   2 N  py        
    58     -5.750973   5 N  s                19     -5.354957   2 N  s         
    32      5.232658   3 C  s                75      5.084175   7 C  px        

 Vector   98  Occ=0.000000D+00  E= 1.679476D+00  Symmetry=a'
              MO Center=  7.8D-03,  1.0D+00, -9.2D-17, r^2= 3.7D+00
   Bfn.  Coefficient  Atom+Function         Bfn.  Coefficient  Atom+Function  
  ----- ------------  ---------------      ----- ------------  ---------------
    36     14.532523   3 C  s                49    -12.972264   4 C  s         
    25      7.295330   2 N  py               62      7.284421   5 N  s         
    10     -6.518271   1 C  s                19      6.372320   2 N  s         
     6     -5.784594   1 C  s                23     -4.283428   2 N  s         
    37     -2.983747   3 C  px               51     -2.741776   4 C  py        

 Vector   99  Occ=0.000000D+00  E= 1.761601D+00  Symmetry=a'
              MO Center= -2.8D-01, -5.9D-01,  8.6D-16, r^2= 3.3D+00
   Bfn.  Coefficient  Atom+Function         Bfn.  Coefficient  Atom+Function  
  ----- ------------  ---------------      ----- ------------  ---------------
    58     -5.625610   5 N  s                45      5.562694   4 C  s         
    32     -4.775101   3 C  s                49     -3.982252   4 C  s         
    47      3.662615   4 C  py               23     -3.563832   2 N  s         
     6      3.526452   1 C  s                21     -3.470782   2 N  py        
    36      3.461116   3 C  s                33      3.332773   3 C  px        


 center of mass
 --------------
 x =   0.00134910 y =  -0.09073387 z =   0.00000000

 moments of inertia (a.u.)
 ------------------
         519.259915511837           1.464154533763           0.000000000000
           1.464154533763         207.365213482778           0.000000000000
           0.000000000000           0.000000000000         715.102817367163

     Multipole analysis of the density
     ---------------------------------

     L   x y z        total         alpha         beta         nuclear
     -   - - -        -----         -----         ----         -------
     0   0 0 0      1.000000    -22.000000    -22.000000     45.000000

     1   1 0 0     -0.708864     -0.393382     -0.393382      0.077900
     1   0 1 0     -0.378173      0.183903      0.183903     -0.745979
     1   0 0 1      0.000000      0.000000      0.000000      0.000000

     2   2 0 0    -17.044285    -71.146739    -71.146739    125.249192
     2   1 1 0      1.608979      1.334623      1.334623     -1.060268
     2   1 0 1      0.000000      0.000000      0.000000      0.000000
     2   0 2 0    -11.916194   -160.403088   -160.403088    308.889982
     2   0 1 1     -0.000000     -0.000000     -0.000000      0.000000
     2   0 0 2    -27.296784    -16.506604    -16.506604      5.716425


 Parallel integral file used     154 records with       0 large values


          -------------
          Dipole Moment
          -------------

 Center of charge (in au) is the expansion point
         X =       0.0017311 Y =      -0.0165773 Z =       0.0000000

   Dipole moment        0.7973059342 A.U.
             DMX       -0.7105951780 DMXEFC       -0.9585654812
             DMY       -0.3615954173 DMYEFC       -7.2994818710
             DMZ        0.0000000000 DMZEFC       -4.6202381667
   -EFC- dipole         8.6918285811 A.U.
   Total dipole         9.1008133285 A.U.

   Dipole moment        2.0265648601 Debye(s)
             DMX       -1.8061664358 DMXEFC       -2.4364488422
             DMY       -0.9190908218 DMYEFC      -18.5535725014
             DMZ        0.0000000000 DMZEFC      -11.7435628056
   -EFC- dipole        22.0925915839 DEBYE(S)
   Total dipole        23.1321349785 DEBYE(S)

 1 a.u. = 2.541766 Debyes 


          ----------------------------
          Mulliken population analysis
          ----------------------------

 Total      S,P,D,... shell population
 --------------------------------
    Atom          S        P
 --------------------------------------------------------------------------------------
     1 C      3.56805   2.94668
     2 N      3.42334   3.89134
     3 C      3.23358   2.84084
     4 C      3.32833   2.78279
     5 N      3.49571   4.04595
     6 H      0.45347   0.00000
     7 C      3.22752   2.58028
     8 H      0.73913   0.00000
     9 H      0.71347   0.00000
    10 H      0.71347   0.00000
    11 H      0.68553   0.00000
    12 H      0.68614   0.00000
    13 H      0.64438   0.00000

          ----- Total      gross population on atoms ----

              1  C    6.0     6.51473
              2  N    7.0     7.31468
              3  C    6.0     6.07442
              4  C    6.0     6.11112
              5  N    7.0     7.54166
              6  H    1.0     0.45347
              7  C    6.0     5.80780
              8  H    1.0     0.73913
              9  H    1.0     0.71347
             10  H    1.0     0.71347
             11  H    1.0     0.68553
             12  H    1.0     0.68614
             13  H    1.0     0.64438

          ----- Bond indices -----
  1- 1   0.00000  1- 2   0.49830  1- 3  -0.03014  1- 4   0.01393  1- 5   0.01614  1- 6   0.00268  1- 7  -0.00003  1- 8   0.94911
  2- 1   0.49830  2- 2   0.00000  2- 3   1.04184  2- 4  -0.03594  2- 5   0.13668  2- 6   0.04191  2- 7   1.28489  2- 8  -0.03962
  3- 1  -0.03014  3- 2   1.04184  3- 3   0.00000  3- 4   1.76734  3- 5  -0.10405  3- 6  -0.03548  3- 7   0.11765  3- 8  -0.00337
  4- 1   0.01393  4- 2  -0.03594  4- 3   1.76734  4- 4   0.00000  4- 5   1.13575  4- 6   0.04754  4- 7   0.07866  4- 8   0.00380
  5- 1   0.01614  5- 2   0.13668  5- 3  -0.10405  5- 4   1.13575  5- 5   0.00000  5- 6   0.61498  5- 7   1.21971  5- 8  -0.00027
  6- 1   0.00268  6- 2   0.04191  6- 3  -0.03548  6- 4   0.04754  6- 5   0.61498  6- 6   0.00000  6- 7  -0.00850  6- 8  -0.00013
  7- 1  -0.00003  7- 2   1.28489  7- 3   0.11765  7- 4   0.07866  7- 5   1.21971  7- 6  -0.00850  7- 7   0.00000  7- 8   0.00751
  8- 1   0.94911  8- 2  -0.03962  8- 3  -0.00337  8- 4   0.00380  8- 5  -0.00027  8- 6  -0.00013  8- 7   0.00751  8- 8   0.00000
  9- 1   0.91460  9- 2  -0.03332  9- 3   0.00095  9- 4   0.00040  9- 5   0.00099  9- 6   0.00007  9- 7  -0.00632  9- 8  -0.01335
 10- 1   0.91460 10- 2  -0.03332 10- 3   0.00095 10- 4   0.00040 10- 5   0.00099 10- 6   0.00007 10- 7  -0.00632 10- 8  -0.01335
 11- 1  -0.02173 11- 2  -0.02859 11- 3   0.87803 11- 4  -0.00818 11- 5   0.01774 11- 6   0.00092 11- 7   0.01708 11- 8  -0.00445
 12- 1  -0.00096 12- 2   0.01364 12- 3  -0.01517 12- 4   0.86719 12- 5  -0.02211 12- 6   0.00277 12- 7   0.01530 12- 8   0.00029
 13- 1   0.00230 13- 2  -0.03534 13- 3   0.01762 13- 4   0.01168 13- 5  -0.02338 13- 6   0.00054 13- 7   0.85118 13- 8   0.00052
  1- 9   0.91460  1-10   0.91460  1-11  -0.02173  1-12  -0.00096  1-13   0.00230
  2- 9  -0.03332  2-10  -0.03332  2-11  -0.02859  2-12   0.01364  2-13  -0.03534
  3- 9   0.00095  3-10   0.00095  3-11   0.87803  3-12  -0.01517  3-13   0.01762
  4- 9   0.00040  4-10   0.00040  4-11  -0.00818  4-12   0.86719  4-13   0.01168
  5- 9   0.00099  5-10   0.00099  5-11   0.01774  5-12  -0.02211  5-13  -0.02338
  6- 9   0.00007  6-10   0.00007  6-11   0.00092  6-12   0.00277  6-13   0.00054
  7- 9  -0.00632  7-10  -0.00632  7-11   0.01708  7-12   0.01530  7-13   0.85118
  8- 9  -0.01335  8-10  -0.01335  8-11  -0.00445  8-12   0.00029  8-13   0.00052
  9- 9   0.00000  9-10  -0.01527  9-11   0.00067  9-12   0.00005  9-13  -0.00041
 10- 9  -0.01527 10-10   0.00000 10-11   0.00067 10-12   0.00005 10-13  -0.00041
 11- 9   0.00067 11-10   0.00067 11-11   0.00000 11-12   0.00314 11-13   0.00143
 12- 9   0.00005 12-10   0.00005 12-11   0.00314 12-12   0.00000 12-13   0.00114
 13- 9  -0.00041 13-10  -0.00041 13-11   0.00143 13-12   0.00114 13-13   0.00000

 Large bond indices
 ------------------
  1   C -  2   N    0.49830
  1   C -  8   H    0.94911
  1   C -  9   H    0.91460
  1   C - 10   H    0.91460
  2   N -  3   C    1.04184
  2   N -  5   N    0.13668
  2   N -  7   C    1.28489
  3   C -  4   C    1.76734
  3   C -  7   C    0.11765
  3   C - 11   H    0.87803
  4   C -  5   N    1.13575
  4   C - 12   H    0.86719
  5   N -  6   H    0.61498
  5   N -  7   C    1.21971
  7   C - 13   H    0.85118

                                                                Free electrons             Valency
                              Number of         Sum of          + Bond indices         - Bond indices    
                Valency     Free electrons    Bond indices     =Mulliken charge     = Net spin population
     1  C       3.25880        3.25593          3.25880           6.51473                 0.00000
     2  N       2.81113        4.50356          2.81113           7.31468                 0.00000
     3  C       3.63616        2.43825          3.63616           6.07442                 0.00000
     4  C       3.88258        2.22854          3.88258           6.11112                -0.00000
     5  N       2.99319        4.54848          2.99319           7.54166                -0.00000
     6  H       0.66736       -0.21389          0.66736           0.45347                 0.00000
     7  C       3.57082        2.23698          3.57082           5.80780                 0.00000
     8  H       0.88669       -0.14756          0.88669           0.73913                 0.00000
     9  H       0.84907       -0.13560          0.84907           0.71347                 0.00000
    10  H       0.84907       -0.13560          0.84907           0.71347                -0.00000
    11  H       0.85673       -0.17120          0.85673           0.68553                -0.00000
    12  H       0.86533       -0.17919          0.86533           0.68614                -0.00000
    13  H       0.82687       -0.18249          0.82687           0.64438                -0.00000
 MOLDEN output will be written to the file ./midz.molden
  do_norm_janpa  T
  do_norm_nwchem  F
  molden scftype: RHF                  spinref:                     1

 Task  times  cpu:       12.7s     wall:       13.6s


                                NWChem Input Module
                                -------------------


 Summary of allocated global arrays
-----------------------------------
  No active global arrays



                         GA Statistics for process    0
                         ------------------------------

       create   destroy   get      put      acc     scatter   gather  read&inc
calls: 1.08e+04 1.04e+04 1.43e+06 3.97e+04 9.68e+05   20        0     8.78e+04 
number of processes/call 0.00e+00 0.00e+00 0.00e+00 0.00e+00 0.00e+00
bytes total:             7.76e+08 1.08e+08 4.13e+08 1.35e+03 0.00e+00 7.03e+05
bytes remote:            2.96e+08 3.40e+07 1.15e+08 0.00e+00 0.00e+00 0.00e+00
Max memory consumed for GA by this process: 888192 bytes

MA_summarize_allocated_blocks: starting scan ...
MA_summarize_allocated_blocks: scan completed: 0 heap blocks, 0 stack blocks
MA usage statistics:

	allocation statistics:
					      heap	     stack
					      ----	     -----
	current number of blocks	         0	         0
	maximum number of blocks	        27	        57
	current total bytes		         0	         0
	maximum total bytes		  37498448	  34659160
	maximum total K-bytes		     37499	     34660
	maximum total M-bytes		        38	        35


                                     CITATION
                                     --------
                Please cite the following reference when publishing
                           results obtained with NWChem:

          E. Apr, E. J. Bylaska, W. A. de Jong, N. Govind, K. Kowalski,
       T. P. Straatsma, M. Valiev, H. J. J. van Dam, Y. Alexeev, J. Anchell,
       V. Anisimov, F. W. Aquino, R. Atta-Fynn, J. Autschbach, N. P. Bauman,
     J. C. Becca, D. E. Bernholdt, K. Bhaskaran-Nair, S. Bogatko, P. Borowski,
        J. Boschen, J. Brabec, A. Bruner, E. Caut, Y. Chen, G. N. Chuev,
      C. J. Cramer, J. Daily, M. J. O. Deegan, T. H. Dunning Jr., M. Dupuis,
   K. G. Dyall, G. I. Fann, S. A. Fischer, A. Fonari, H. Frchtl, L. Gagliardi,
      J. Garza, N. Gawande, S. Ghosh, K. Glaesemann, A. W. Gtz, J. Hammond,
       V. Helms, E. D. Hermes, K. Hirao, S. Hirata, M. Jacquelin, L. Jensen,
   B. G. Johnson, H. Jnsson, R. A. Kendall, M. Klemm, R. Kobayashi, V. Konkov,
      S. Krishnamoorthy, M. Krishnan, Z. Lin, R. D. Lins, R. J. Littlefield,
      A. J. Logsdail, K. Lopata, W. Ma, A. V. Marenich, J. Martin del Campo,
   D. Mejia-Rodriguez, J. E. Moore, J. M. Mullin, T. Nakajima, D. R. Nascimento,
    J. A. Nichols, P. J. Nichols, J. Nieplocha, A. Otero-de-la-Roza, B. Palmer,
    A. Panyala, T. Pirojsirikul, B. Peng, R. Peverati, J. Pittner, L. Pollack,
   R. M. Richard, P. Sadayappan, G. C. Schatz, W. A. Shelton, D. W. Silverstein,
   D. M. A. Smith, T. A. Soares, D. Song, M. Swart, H. L. Taylor, G. S. Thomas,
            V. Tipparaju, D. G. Truhlar, K. Tsemekhman, T. Van Voorhis,
     . Vzquez-Mayagoitia, P. Verma, O. Villa, A. Vishnu, K. D. Vogiatzis,
        D. Wang, J. H. Weare, M. J. Williamson, T. L. Windus, K. Woliski,
        A. T. Wong, Q. Wu, C. Yang, Q. Yu, M. Zacharias, Z. Zhang, Y. Zhao,
                                and R. J. Harrison
                        "NWChem: Past, present, and future
                         J. Chem. Phys. 152, 184102 (2020)
                               doi:10.1063/5.0004997

                                      AUTHORS
                                      -------
     E. Apra, E. J. Bylaska, N. Govind, K. Kowalski, M. Valiev, W. A. de Jong,
      T. P. Straatsma, H. J. J. van Dam, D. Wang, T. L. Windus, N. P. Bauman,
       A. Panyala, J. Hammond, J. Autschbach, K. Bhaskaran-Nair, J. Brabec,
    K. Lopata, S. A. Fischer, S. Krishnamoorthy, M. Jacquelin, W. Ma, M. Klemm,
       O. Villa, Y. Chen, V. Anisimov, F. Aquino, S. Hirata, M. T. Hackler,
           Eric Hermes, L. Jensen, J. E. Moore, J. C. Becca, V. Konjkov,
            D. Mejia-Rodriguez, T. Risthaus, M. Malagoli, A. Marenich,
   A. Otero-de-la-Roza, J. Mullin, P. Nichols, R. Peverati, J. Pittner, Y. Zhao,
        P.-D. Fan, A. Fonari, M. J. Williamson, R. J. Harrison, J. R. Rehr,
      M. Dupuis, D. Silverstein, D. M. A. Smith, J. Nieplocha, V. Tipparaju,
      M. Krishnan, B. E. Van Kuiken, A. Vazquez-Mayagoitia, M. Swart, Q. Wu,
   T. Van Voorhis, A. A. Auer, M. Nooijen, L. D. Crosby, E. Brown, G. Cisneros,
     G. I. Fann, H. Fruchtl, J. Garza, K. Hirao, R. A. Kendall, J. A. Nichols,
       K. Tsemekhman, K. Wolinski, J. Anchell, D. E. Bernholdt, P. Borowski,
       T. Clark, D. Clerc, H. Dachsel, M. J. O. Deegan, K. Dyall, D. Elwood,
      E. Glendening, M. Gutowski, A. C. Hess, J. Jaffe, B. G. Johnson, J. Ju,
        R. Kobayashi, R. Kutteh, Z. Lin, R. Littlefield, X. Long, B. Meng,
      T. Nakajima, S. Niu, L. Pollack, M. Rosing, K. Glaesemann, G. Sandrone,
      M. Stave, H. Taylor, G. Thomas, J. H. van Lenthe, A. T. Wong, Z. Zhang.

 Total times  cpu:      123.4s     wall:      149.3s
[0] ARMCI Warning: Freed 1 leaked allocations
