[Molden Format]
[Atoms] AU
   C     1    6     -0.0356132398     3.9952473805     0.0000000000
   N     2    7     -0.0031460092     1.2022037553     0.0000000000
   C     3    6      2.1680149301    -0.3005892991     0.0000000000
   C     4    6      1.3859093941    -2.7658418479     0.0000000000
   N     5    7     -1.2431426061    -2.7140850972     0.0000000000
   H     6    1     -2.3551302842    -4.2707604608     0.0000000000
   C     7    6     -2.0580295910    -0.3038632705     0.0000000000
   H     8    1      1.9132158013     4.6595722167     0.0000000000
   H     9    1     -0.9979963578     4.6786642817     1.6906248534
   H    10    1     -0.9979963578     4.6786642817    -1.6906248534
   H    11    1      4.0338660708     0.5090167362     0.0000000000
   H    12    1      2.4317568543    -4.5094349998     0.0000000000
   H    13    1     -3.9874839952     0.3417500773     0.0000000000
[GTO]
    1  0
  s      6  0
      3047.5248800000         0.0018347371
       457.3695180000         0.0140373228
       103.9486850000         0.0688426223
        29.2101553000         0.2321844432
         9.2866629600         0.4679413484
         3.1639269600         0.3623119853
  s      3  0
         7.8682723500        -0.1193324198
         1.8812885400        -0.1608541517
         0.5442492580         1.1434564378
  p      3  0
         7.8682723500         0.0689990666
         1.8812885400         0.3164239610
         0.5442492580         0.7443082909
  s      1  0
         0.1687144782         1.0000000000
  p      1  0
         0.1687144782         1.0000000000
  s      1  0
         0.0438000000         1.0000000000
  p      1  0
         0.0438000000         1.0000000000

    2  0
  s      6  0
      4173.5114600000         0.0018347722
       627.4579110000         0.0139946270
       142.9020930000         0.0685865518
        40.2343293000         0.2322408730
        12.8202129000         0.4690699481
         4.3904370100         0.3604551991
  s      3  0
        11.6263618600        -0.1149611817
         2.7162798070        -0.1691174786
         0.7722183966         1.1458519471
  p      3  0
        11.6263618600         0.0675797439
         2.7162798070         0.3239072959
         0.7722183966         0.7408951398
  s      1  0
         0.2120314975         1.0000000000
  p      1  0
         0.2120314975         1.0000000000
  s      1  0
         0.0639000000         1.0000000000
  p      1  0
         0.0639000000         1.0000000000

    3  0
  s      6  0
      3047.5248800000         0.0018347371
       457.3695180000         0.0140373228
       103.9486850000         0.0688426223
        29.2101553000         0.2321844432
         9.2866629600         0.4679413484
         3.1639269600         0.3623119853
  s      3  0
         7.8682723500        -0.1193324198
         1.8812885400        -0.1608541517
         0.5442492580         1.1434564378
  p      3  0
         7.8682723500         0.0689990666
         1.8812885400         0.3164239610
         0.5442492580         0.7443082909
  s      1  0
         0.1687144782         1.0000000000
  p      1  0
         0.1687144782         1.0000000000
  s      1  0
         0.0438000000         1.0000000000
  p      1  0
         0.0438000000         1.0000000000

    4  0
  s      6  0
      3047.5248800000         0.0018347371
       457.3695180000         0.0140373228
       103.9486850000         0.0688426223
        29.2101553000         0.2321844432
         9.2866629600         0.4679413484
         3.1639269600         0.3623119853
  s      3  0
         7.8682723500        -0.1193324198
         1.8812885400        -0.1608541517
         0.5442492580         1.1434564378
  p      3  0
         7.8682723500         0.0689990666
         1.8812885400         0.3164239610
         0.5442492580         0.7443082909
  s      1  0
         0.1687144782         1.0000000000
  p      1  0
         0.1687144782         1.0000000000
  s      1  0
         0.0438000000         1.0000000000
  p      1  0
         0.0438000000         1.0000000000

    5  0
  s      6  0
      4173.5114600000         0.0018347722
       627.4579110000         0.0139946270
       142.9020930000         0.0685865518
        40.2343293000         0.2322408730
        12.8202129000         0.4690699481
         4.3904370100         0.3604551991
  s      3  0
        11.6263618600        -0.1149611817
         2.7162798070        -0.1691174786
         0.7722183966         1.1458519471
  p      3  0
        11.6263618600         0.0675797439
         2.7162798070         0.3239072959
         0.7722183966         0.7408951398
  s      1  0
         0.2120314975         1.0000000000
  p      1  0
         0.2120314975         1.0000000000
  s      1  0
         0.0639000000         1.0000000000
  p      1  0
         0.0639000000         1.0000000000

    6  0
  s      3  0
        18.7311369600         0.0334946043
         2.8253943650         0.2347269535
         0.6401216923         0.8137573261
  s      1  0
         0.1612777588         1.0000000000
  s      1  0
         0.0360000000         1.0000000000

    7  0
  s      6  0
      3047.5248800000         0.0018347371
       457.3695180000         0.0140373228
       103.9486850000         0.0688426223
        29.2101553000         0.2321844432
         9.2866629600         0.4679413484
         3.1639269600         0.3623119853
  s      3  0
         7.8682723500        -0.1193324198
         1.8812885400        -0.1608541517
         0.5442492580         1.1434564378
  p      3  0
         7.8682723500         0.0689990666
         1.8812885400         0.3164239610
         0.5442492580         0.7443082909
  s      1  0
         0.1687144782         1.0000000000
  p      1  0
         0.1687144782         1.0000000000
  s      1  0
         0.0438000000         1.0000000000
  p      1  0
         0.0438000000         1.0000000000

    8  0
  s      3  0
        18.7311369600         0.0334946043
         2.8253943650         0.2347269535
         0.6401216923         0.8137573261
  s      1  0
         0.1612777588         1.0000000000
  s      1  0
         0.0360000000         1.0000000000

    9  0
  s      3  0
        18.7311369600         0.0334946043
         2.8253943650         0.2347269535
         0.6401216923         0.8137573261
  s      1  0
         0.1612777588         1.0000000000
  s      1  0
         0.0360000000         1.0000000000

   10  0
  s      3  0
        18.7311369600         0.0334946043
         2.8253943650         0.2347269535
         0.6401216923         0.8137573261
  s      1  0
         0.1612777588         1.0000000000
  s      1  0
         0.0360000000         1.0000000000

   11  0
  s      3  0
        18.7311369600         0.0334946043
         2.8253943650         0.2347269535
         0.6401216923         0.8137573261
  s      1  0
         0.1612777588         1.0000000000
  s      1  0
         0.0360000000         1.0000000000

   12  0
  s      3  0
        18.7311369600         0.0334946043
         2.8253943650         0.2347269535
         0.6401216923         0.8137573261
  s      1  0
         0.1612777588         1.0000000000
  s      1  0
         0.0360000000         1.0000000000

   13  0
  s      3  0
        18.7311369600         0.0334946043
         2.8253943650         0.2347269535
         0.6401216923         0.8137573261
  s      1  0
         0.1612777588         1.0000000000
  s      1  0
         0.0360000000         1.0000000000

[5D]
[9G]
[MO]
Sym= a'   
Ene=  -0.14451974467110E+02
Spin= Alpha
Occup=       2.0000000000
     1   -0.000001206525
     2   -0.000707332904
     3   -0.000020276943
     4   -0.000036369474
     5   -0.000000000000
     6    0.004311190933
     7    0.000193322891
     8   -0.001782202060
     9    0.000000000000
    10    0.006556757474
    11    0.000874012109
    12   -0.001932567171
    13    0.000000000000
    14    0.995434017180
    15    0.034362335609
    16   -0.000141906062
    17   -0.000705267083
    18    0.000000000000
    19   -0.036004422048
    20    0.000101665274
    21    0.005202214363
    22   -0.000000000000
    23    0.023045426138
    24    0.000633618517
    25   -0.004194215735
    26   -0.000000000000
    27    0.000070086501
    28   -0.000430583379
    29    0.000015684917
    30    0.000199886007
    31    0.000000000000
    32    0.010498148066
    33   -0.007716240633
    34   -0.000574670878
    35   -0.000000000000
    36   -0.022254092758
    37    0.007286610253
    38   -0.004109403592
    39   -0.000000000000
    40   -0.000008479023
    41   -0.000034694999
    42   -0.000194984378
    43    0.000040920919
    44    0.000000000000
    45   -0.003733628089
    46    0.001844010643
    47   -0.004362109772
    48   -0.000000000000
    49    0.020916206323
    50   -0.006496850232
    51    0.001923800783
    52   -0.000000000000
    53   -0.000930666739
    54   -0.000369752151
    55    0.000076811216
    56    0.000001628571
    57   -0.000000000000
    58   -0.000015673504
    59    0.000331512766
    60   -0.001588065911
    61   -0.000000000000
    62   -0.013673673488
    63   -0.005913187374
    64   -0.000723371632
    65    0.000000000000
    66   -0.000077314607
    67   -0.000221896042
    68   -0.003860312306
    69    0.000115156200
    70   -0.000414968989
    71   -0.000193138493
    72    0.000147110396
    73    0.000000000000
    74    0.009472809377
    75    0.007548238565
    76    0.000575902707
    77   -0.000000000000
    78   -0.011114569958
    79   -0.000091994052
    80   -0.002886263926
    81   -0.000000000000
    82   -0.000197350733
    83   -0.001249879027
    84   -0.000001729794
    85   -0.000247994644
    86   -0.000792765888
    87    0.000583630368
    88   -0.000247994644
    89   -0.000792765888
    90    0.000583630368
    91   -0.000002065917
    92    0.002210044447
    93    0.000451480908
    94   -0.000210464427
    95   -0.001507417813
    96   -0.000920565267
    97   -0.000023020964
    98    0.002262450330
    99    0.003498615365
Sym= a'   
Ene=  -0.14442272297415E+02
Spin= Alpha
Occup=       2.0000000000
     1   -0.000014078017
     2   -0.000103368431
     3    0.000056930546
     4   -0.000006079254
     5   -0.000000000000
     6   -0.000154282608
     7   -0.000677410924
     8   -0.000016730150
     9    0.000000000000
    10   -0.015614294210
    11    0.000193657564
    12    0.003416799235
    13    0.000000000000
    14    0.000876923961
    15   -0.000260005604
    16    0.000069664146
    17    0.000125239760
    18    0.000000000000
    19   -0.001342134910
    20    0.001320784611
    21    0.000518733145
    22   -0.000000000000
    23   -0.021772998416
    24   -0.002681215178
    25    0.020728036616
    26   -0.000000000000
    27   -0.000060155768
    28   -0.000533651916
    29   -0.000085794227
    30    0.000199231566
    31    0.000000000000
    32   -0.002051803649
    33    0.003333015471
    34    0.001996729307
    35   -0.000000000000
    36    0.059909783898
    37   -0.009385127414
    38   -0.009125590770
    39   -0.000000000000
    40    0.000096906513
    41   -0.000205713171
    42   -0.000209953594
    43   -0.000218752592
    44   -0.000000000000
    45    0.009744618901
    46   -0.006190913657
    47    0.005761832063
    48    0.000000000000
    49   -0.058811315715
    50    0.004152602792
    51   -0.012060654197
    52    0.000000000000
    53    0.995419241490
    54    0.034640990763
    55    0.000367963713
    56    0.000790010904
    57   -0.000000000000
    58   -0.037339027358
    59   -0.004101092065
    60   -0.007062972940
    61   -0.000000000000
    62    0.036663391054
    63    0.006832432107
    64    0.010719393606
    65    0.000000000000
    66   -0.000740498558
    67    0.002437083027
    68    0.005263554969
    69    0.000105170489
    70   -0.000470013372
    71   -0.000264781299
    72    0.000007865296
    73    0.000000000000
    74    0.011757281521
    75    0.007738357289
    76   -0.005972301611
    77    0.000000000000
    78   -0.005826296042
    79    0.003410274483
    80    0.002619491865
    81   -0.000000000000
    82    0.000121545541
    83   -0.001015241623
    84    0.001589608395
    85   -0.000018784531
    86   -0.001569349364
    87    0.000408532336
    88   -0.000018784531
    89   -0.001569349364
    90    0.000408532336
    91   -0.000166869534
    92   -0.001267020206
    93   -0.000810573160
    94    0.000116257113
    95    0.002590671231
    96   -0.000998551190
    97    0.000101168449
    98    0.003151491468
    99    0.003758419069
Sym= a'   
Ene=  -0.10312431538348E+02
Spin= Alpha
Occup=       2.0000000000
     1   -0.000099705031
     2   -0.000284149332
     3   -0.000020618324
     4    0.000035397319
     5   -0.000000000000
     6    0.000349584353
     7    0.000293972343
     8    0.000242825884
     9    0.000000000000
    10    0.003159487787
    11    0.004274282729
    12   -0.000005773836
    13    0.000000000000
    14   -0.000014969997
    15   -0.000187104070
    16    0.000530158264
    17    0.000381596872
    18   -0.000000000000
    19    0.003992092315
    20   -0.001770797229
    21   -0.001284803571
    22   -0.000000000000
    23    0.018406778363
    24   -0.013747049886
    25   -0.008639217186
    26    0.000000000000
    27    0.000029376598
    28   -0.000123445783
    29   -0.000214181945
    30   -0.000107624060
    31    0.000000000000
    32   -0.000576990385
    33   -0.000481332051
    34    0.000697698004
    35   -0.000000000000
    36    0.003089544924
    37    0.003941540648
    38    0.005755233541
    39   -0.000000000000
    40    0.000121358206
    41    0.000097723508
    42   -0.000121304483
    43    0.000120875876
    44   -0.000000000000
    45   -0.001624806548
    46    0.000666340679
    47    0.000750400859
    48   -0.000000000000
    49    0.007828943329
    50   -0.000349112570
    51   -0.004282449469
    52    0.000000000000
    53   -0.000018648504
    54   -0.000200737736
    55    0.000136336929
    56   -0.000615340688
    57   -0.000000000000
    58    0.003858488482
    59    0.000554692298
    60    0.001402833092
    61   -0.000000000000
    62    0.013168241808
    63   -0.003538150059
    64    0.007112979974
    65    0.000000000000
    66   -0.000043459308
    67   -0.000440040845
    68    0.001221404254
    69    0.995419801232
    70    0.038616977004
    71    0.001530228922
    72   -0.000398259606
    73    0.000000000000
    74   -0.038595908963
    75   -0.005589969154
    76    0.000171382912
    77   -0.000000000000
    78   -0.031243909829
    79    0.000488809554
    80   -0.000074690495
    81   -0.000000000000
    82   -0.000104273626
    83    0.001061590926
    84   -0.006315441251
    85   -0.000041875805
    86   -0.000402214525
    87    0.002461207489
    88   -0.000041875805
    89   -0.000402214525
    90    0.002461207489
    91    0.000076955152
    92    0.000935790564
    93   -0.002988458103
    94    0.000166938615
    95    0.000682866246
    96   -0.003114740507
    97   -0.000623418085
    98    0.002375055020
    99    0.006728123620
Sym= a'   
Ene=  -0.10263046742123E+02
Spin= Alpha
Occup=       2.0000000000
     1   -0.000178322991
     2   -0.000485181573
     3    0.000040206528
     4   -0.000079482239
     5    0.000000000000
     6    0.003116367528
     7   -0.000093360945
     8   -0.001674907402
     9    0.000000000000
    10    0.010040489243
    11   -0.001497142801
    12   -0.004887425204
    13    0.000000000000
    14   -0.000011179173
    15   -0.000034055101
    16   -0.000071523495
    17    0.000139921021
    18    0.000000000000
    19   -0.000474283774
    20   -0.000162334074
    21   -0.002201187570
    22    0.000000000000
    23   -0.001687332535
    24    0.004577175627
    25   -0.004070619436
    26    0.000000000000
    27    0.181998022494
    28    0.006100679830
    29    0.000128483196
    30    0.000827184573
    31    0.000000000000
    32    0.002146647375
    33   -0.002416164063
    34   -0.004964939842
    35    0.000000000000
    36   -0.005779359100
    37   -0.004730023690
    38   -0.001567531544
    39   -0.000000000000
    40    0.978628681274
    41    0.037795430405
    42   -0.001334948951
    43    0.000622123167
    44    0.000000000000
    45   -0.038943305931
    46    0.004957325184
    47   -0.006181067954
    48   -0.000000000000
    49   -0.005559108082
    50    0.003955165897
    51    0.007035765572
    52    0.000000000000
    53    0.000024086784
    54   -0.000027695278
    55   -0.000545745433
    56   -0.000124983271
    57    0.000000000000
    58    0.005189913929
    59    0.002391689517
    60    0.002432365308
    61    0.000000000000
    62    0.025437456231
    63    0.013528211841
    64    0.004342673665
    65    0.000000000000
    66   -0.000096648001
    67    0.001821706469
    68    0.006096220231
    69   -0.000170470481
    70    0.000147785173
    71    0.000218554800
    72   -0.000130113180
    73    0.000000000000
    74   -0.004079942464
    75   -0.002203366835
    76    0.002153989368
    77    0.000000000000
    78   -0.012370838546
    79   -0.017006329212
    80    0.000591354001
    81   -0.000000000000
    82   -0.000200335855
    83    0.000340482687
    84    0.001371910317
    85   -0.000136635583
    86    0.000407889132
    87    0.000776704424
    88   -0.000136635583
    89    0.000407889132
    90    0.000776704424
    91   -0.000291321730
    92    0.002082689610
    93    0.002645383135
    94   -0.000939823957
    95    0.001800927221
    96    0.002845787961
    97    0.000089583204
    98   -0.001013067915
    99   -0.012839989385
Sym= a'   
Ene=  -0.10261253258541E+02
Spin= Alpha
Occup=       2.0000000000
     1   -0.000394474548
     2   -0.000395158186
     3    0.000136870532
     4    0.000006893345
     5   -0.000000000000
     6    0.001681915447
     7   -0.001487447869
     8   -0.000197839402
     9    0.000000000000
    10    0.022202676959
    11   -0.003250239510
    12   -0.007201607401
    13    0.000000000000
    14    0.000032726707
    15   -0.000070514550
    16   -0.000458792386
    17    0.000324300579
    18   -0.000000000000
    19    0.005401234487
    20    0.002599982029
    21   -0.002622129606
    22   -0.000000000000
    23    0.033347533909
    24    0.013486481668
    25   -0.023758293192
    26    0.000000000000
    27    0.978697688971
    28    0.038651081627
    29   -0.001557409463
    30   -0.000064431599
    31    0.000000000000
    32   -0.046522285165
    33    0.010282576062
    34    0.003739810345
    35   -0.000000000000
    36   -0.033416905192
    37    0.010721030054
    38   -0.009374795478
    39   -0.000000000000
    40   -0.182104885147
    41   -0.008172712143
    42    0.000110732556
    43   -0.000939224479
    44   -0.000000000000
    45    0.019640338253
    46   -0.002237759766
    47    0.008852043448
    48   -0.000000000000
    49    0.014252189353
    50   -0.009294777783
    51    0.005251433732
    52   -0.000000000000
    53   -0.000049020328
    54   -0.000379828638
    55    0.000217591725
    56    0.000093116984
    57   -0.000000000000
    58   -0.000779935348
    59   -0.001790339749
    60    0.000035783915
    61   -0.000000000000
    62   -0.025892113946
    63   -0.004119783788
    64   -0.007905316742
    65    0.000000000000
    66    0.000020267920
    67    0.000248295550
    68   -0.004314220341
    69   -0.000085047927
    70   -0.000140474890
    71    0.000250605196
    72   -0.000083819278
    73    0.000000000000
    74   -0.000622080222
    75   -0.001017684924
    76    0.000937630452
    77   -0.000000000000
    78    0.001522529568
    79   -0.007141550503
    80   -0.000431199466
    81   -0.000000000000
    82   -0.000044410188
    83    0.000999036987
    84    0.005767069189
    85   -0.000122615312
    86    0.000675078387
    87   -0.001951516119
    88   -0.000122615312
    89    0.000675078387
    90   -0.001951516119
    91   -0.000772175811
    92    0.000560003630
    93   -0.001273985166
    94    0.000039920774
    95    0.002204759812
    96    0.003783485428
    97   -0.000059335137
    98    0.000191054235
    99   -0.006481745958
Sym= a'   
Ene=  -0.10240987174842E+02
Spin= Alpha
Occup=       2.0000000000
     1    0.995511340306
     2    0.039140382773
     3    0.000063477328
     4   -0.001262736659
     5   -0.000000000000
     6   -0.041088987928
     7   -0.000620737917
     8    0.005151633888
     9    0.000000000000
    10   -0.043207805791
    11    0.000422529199
    12    0.009524434255
    13   -0.000000000000
    14    0.000016057464
    15   -0.000420499641
    16   -0.000069047296
    17   -0.000331147157
    18    0.000000000000
    19    0.006660179575
    20    0.000725817506
    21    0.001940914671
    22   -0.000000000000
    23    0.014574563664
    24    0.002116311052
    25    0.030092143018
    26    0.000000000000
    27    0.000369001580
    28   -0.000219989560
    29    0.000064490750
    30   -0.000125716125
    31    0.000000000000
    32   -0.001089637274
    33    0.001292731653
    34   -0.000312131473
    35   -0.000000000000
    36    0.049965416118
    37   -0.010064012234
    38   -0.013925435160
    39   -0.000000000000
    40    0.000015763176
    41   -0.000206836405
    42    0.000025826897
    43   -0.000039598409
    44    0.000000000000
    45    0.000948220734
    46   -0.000348994005
    47    0.001340111555
    48   -0.000000000000
    49   -0.044058073164
    50   -0.002846248928
    51   -0.010134370744
    52   -0.000000000000
    53   -0.000013679671
    54   -0.000092181675
    55   -0.000054769343
    56   -0.000055609351
    57   -0.000000000000
    58    0.000840801736
    59    0.000179851281
    60    0.001481979844
    61   -0.000000000000
    62    0.019098824301
    63    0.002849007519
    64    0.007059903438
    65    0.000000000000
    66    0.000054865795
    67    0.000624536380
    68    0.001258957652
    69    0.000064247275
    70   -0.000220377599
    71   -0.000039927782
    72   -0.000218775936
    73    0.000000000000
    74   -0.000877822089
    75   -0.001211687483
    76    0.001704187228
    77   -0.000000000000
    78   -0.001870527750
    79   -0.000616034547
    80    0.002548082686
    81   -0.000000000000
    82   -0.000382760076
    83    0.005438805088
    84    0.003004176205
    85   -0.000460987472
    86    0.005328929796
    87    0.002851037850
    88   -0.000460987472
    89    0.005328929796
    90    0.002851037850
    91   -0.000034431510
    92   -0.001020610551
    93    0.005488391446
    94    0.000044640543
    95    0.000558841938
    96   -0.001048529657
    97   -0.000201793604
    98   -0.001003831825
    99    0.001306614825
Sym= a'   
Ene=  -0.10980600719042E+01
Spin= Alpha
Occup=       2.0000000000
     1   -0.025379905110
     2    0.045610854050
     3   -0.000469366745
     4   -0.037662462966
     5   -0.000000000000
     6    0.053612974905
     7    0.002770440537
     8   -0.011372879829
     9    0.000000000000
    10    0.007871114367
    11   -0.007661353334
    12    0.013687611946
    13   -0.000000000000
    14   -0.125696541456
    15    0.255084143805
    16   -0.018541254536
    17   -0.075765189568
    18    0.000000000000
    19    0.292010218889
    20   -0.010627884817
    21   -0.070663442626
    22   -0.000000000000
    23   -0.113516234887
    24    0.008795342666
    25    0.001606260276
    26    0.000000000000
    27   -0.064898017646
    28    0.119088258080
    29   -0.080557090752
    30    0.002031806569
    31    0.000000000000
    32    0.041349007582
    33    0.003352260284
    34   -0.008642058277
    35   -0.000000000000
    36    0.000641104266
    37   -0.031475602848
    38    0.031164056166
    39   -0.000000000000
    40   -0.063459651281
    41    0.117666298994
    42   -0.064946426247
    43    0.046190266358
    44   -0.000000000000
    45    0.030776097725
    46    0.012945232631
    47    0.000599407639
    48   -0.000000000000
    49    0.008195422304
    50    0.017848378729
    51    0.006949762843
    52   -0.000000000000
    53   -0.119904552557
    54    0.242356426885
    55    0.030628228812
    56    0.073388432325
    57   -0.000000000000
    58    0.284345249119
    59    0.034151043380
    60    0.060955179523
    61   -0.000000000000
    62   -0.069448233033
    63    0.001615888419
    64   -0.037126706642
    65    0.000000000000
    66    0.048996882037
    67    0.005918825494
    68   -0.010249321487
    69   -0.102629876855
    70    0.201398790506
    71    0.111156792320
    72   -0.031914146482
    73    0.000000000000
    74    0.017472913974
    75   -0.061027126412
    76    0.018647730898
    77   -0.000000000000
    78    0.135165636969
    79    0.016611328104
    80   -0.000747237277
    81   -0.000000000000
    82    0.006421416288
    83   -0.002023613065
    84   -0.007566127244
    85    0.007189208890
    86   -0.002435773455
    87   -0.012890066034
    88    0.007189208890
    89   -0.002435773455
    90   -0.012890066034
    91    0.014909991466
    92    0.001924486021
    93    0.016474367809
    94    0.014538240849
    95   -0.003224270517
    96    0.005076880212
    97    0.023443949918
    98   -0.027776212640
    99   -0.015235226972
Sym= a'   
Ene=  -0.96800133901131E+00
Spin= Alpha
Occup=       2.0000000000
     1    0.058189085825
     2   -0.112515822440
     3   -0.002057025696
     4    0.067137712588
     5    0.000000000000
     6   -0.055772822016
     7    0.007826353196
     8   -0.008749488274
     9   -0.000000000000
    10    0.079039669570
    11    0.006403161873
    12   -0.010276875883
    13   -0.000000000000
    14    0.141439151190
    15   -0.299254194696
    16   -0.004057727186
    17   -0.009346899055
    18   -0.000000000000
    19   -0.356377366432
    20   -0.010959533638
    21   -0.001668788784
    22    0.000000000000
    23    0.148888236445
    24    0.036014014397
    25   -0.107628045060
    26    0.000000000000
    27    0.039879410800
    28   -0.082756750650
    29    0.051367221660
    30   -0.068306701701
    31   -0.000000000000
    32    0.000864041724
    33   -0.052534591780
    34   -0.010949850990
    35   -0.000000000000
    36   -0.192293439215
    37    0.026964756828
    38   -0.026725793717
    39    0.000000000000
    40   -0.051170610861
    41    0.105736982843
    42   -0.088358372427
    43   -0.012051670185
    44    0.000000000000
    45    0.003658580442
    46    0.040322797271
    47   -0.045102910404
    48    0.000000000000
    49    0.181004305462
    50   -0.039542632666
    51   -0.000106860209
    52   -0.000000000000
    53   -0.147144762353
    54    0.308469891816
    55    0.013875983226
    56    0.009933496094
    57    0.000000000000
    58    0.392030565211
    59    0.018922600536
    60    0.016884025880
    61    0.000000000000
    62   -0.152091175714
    63   -0.080461861820
    64   -0.050507523613
    65   -0.000000000000
    66    0.089457057481
    67   -0.023955058298
    68   -0.044891851567
    69   -0.004666564560
    70    0.009716742586
    71   -0.040209154411
    72   -0.154976372255
    73   -0.000000000000
    74   -0.012595724293
    75   -0.005044716626
    76    0.034009885258
    77   -0.000000000000
    78   -0.017485927747
    79   -0.001841719874
    80    0.005874891681
    81    0.000000000000
    82   -0.023551775653
    83   -0.000474317268
    84   -0.009057825395
    85   -0.022066817795
    86    0.013391899457
    87   -0.004987666767
    88   -0.022066817795
    89    0.013391899457
    90   -0.004987666767
    91   -0.014609771595
    92    0.020244416077
    93    0.033561017006
    94    0.016796251075
    95   -0.024283649572
    96   -0.021322094532
    97   -0.000347393625
    98   -0.006552129559
    99    0.008740211399
Sym= a'   
Ene=  -0.81798803458915E+00
Spin= Alpha
Occup=       2.0000000000
     1    0.044262254490
     2   -0.089362215514
     3    0.019682702625
     4    0.025241711715
     5   -0.000000000000
     6   -0.047241780564
     7    0.001104804459
     8   -0.013268483178
     9    0.000000000000
    10   -0.043484755385
    11    0.012581332611
    12    0.024187590980
    13   -0.000000000000
    14    0.018259245299
    15   -0.042522996702
    16    0.172621163899
    17   -0.077297971133
    18    0.000000000000
    19   -0.048982220749
    20    0.067593697940
    21   -0.056865972494
    22    0.000000000000
    23   -0.058213326187
    24   -0.036657205484
    25    0.042566354293
    26   -0.000000000000
    27   -0.134614329638
    28    0.273104280595
    29   -0.059733461539
    30   -0.073781864880
    31    0.000000000000
    32    0.183790338208
    33    0.015287417969
    34    0.002331212901
    35   -0.000000000000
    36    0.163749171887
    37   -0.001931254114
    38    0.000197118259
    39    0.000000000000
    40   -0.121548810345
    41    0.246866612807
    42    0.014178660532
    43    0.102210015736
    44    0.000000000000
    45    0.185097297963
    46   -0.001953486140
    47    0.004747677906
    48    0.000000000000
    49   -0.073522813808
    50   -0.002248386929
    51   -0.067846173183
    52   -0.000000000000
    53    0.038573566748
    54   -0.086071942927
    55    0.162042619332
    56   -0.051410542780
    57    0.000000000000
    58   -0.116356563241
    59    0.062948210200
    60   -0.007444333411
    61    0.000000000000
    62    0.009795357000
    63   -0.019140724943
    64    0.045478492714
    65   -0.000000000000
    66   -0.047703272559
    67    0.018304924517
    68    0.001617690126
    69    0.098645337830
    70   -0.217756509948
    71   -0.000617062605
    72    0.014020200416
    73    0.000000000000
    74   -0.131501077541
    75    0.028691656759
    76   -0.010984792253
    77    0.000000000000