[Molden Format]
[Atoms] AU
   C     1    6     -1.3328951772   -18.8563703972    -0.8516593523
   C     2    6      0.0330726598   -16.5750803341     0.3218049048
   C     3    6     -0.9318619922   -14.0219730886    -0.6898114445
   C     4    6      0.4177073257   -11.7248927723     0.4817987416
   C     5    6     -0.5408742708    -9.1732969682    -0.5393453566
   C     6    6      0.7995065436    -6.8771166714     0.6455248765
   C     7    6     -0.1695462313    -4.3265465803    -0.3684109981
   C     8    6      1.1512489708    -2.0277699328     0.8339596967
   C     9    6      0.1730449578     0.5174865734    -0.1858209013
   C    10    6      1.4675474962     2.8153828695     1.0494597723
   C    11    6      0.4777810853     5.3508762673     0.0086987879
   C    12    6      1.7672849617     7.6100880961     1.3006209455
   N    13    7      0.8517565437    10.0838783714     0.3150311876
   C    14    6      1.6096582653    11.2076579848    -1.9454793168
   C    15    6      0.2601025519    13.4026255816    -2.1977254262
   N    16    7     -1.3093385901    13.5905501487    -0.0881182142
   C    17    6     -0.9176712052    11.5587011945     1.4058822405
   C    18    6     -3.0904166705    15.6787166755     0.4204053956
   H    19    1     -0.6018160585   -20.6426613547    -0.0986316738
   H    20    1     -1.0907537018   -18.8919683445    -2.9115101304
   H    21    1     -3.3683762007   -18.7906819580    -0.4575270112
   H    22    1      2.0744518931   -16.7255673577    -0.0440430048
   H    23    1     -0.1938952098   -16.6200644355     2.3883440315
   H    24    1     -0.6987950983   -13.9759888319    -2.7574824438
   H    25    1     -2.9763930998   -13.8753488696    -0.3293837573
   H    26    1      2.4630747497   -11.8788633581     0.1302273149
   H    27    1      0.1753422315   -11.7705605417     2.5482306375
   H    28    1     -0.2904703789    -9.1246721672    -2.6046024345
   H    29    1     -2.5879280781    -9.0248017026    -0.1956302675
   H    30    1      2.8456855228    -7.0233256387     0.2969227175
   H    31    1      0.5527387656    -6.9331522820     2.7108865361
   H    32    1     -2.2185820624    -4.1929519371    -0.0319431089
   H    33    1      0.0906766738    -4.2667447269    -2.4319046971
   H    34    1      0.8879125602    -2.0885415767     2.8967989653
   H    35    1      3.2001268386    -2.1606433735     0.4992646972
   H    36    1     -1.8800524459     0.6373262599     0.1255564237
   H    37    1      0.4623372902     0.5881471308    -2.2442946839
   H    38    1      3.5205301483     2.6922062937     0.7439514159
   H    39    1      1.1686324231     2.7432579654     3.1061128207
   H    40    1      0.8071829452     5.4374907018    -2.0394428789
   H    41    1     -1.5749275408     5.4725950458     0.2978733996
   H    42    1      3.8151744576     7.5704064831     1.0184696842
   H    43    1      1.4151439925     7.6031278665     3.3378814400
   H    44    1      3.0185814217    10.3706026273    -3.1514108619
   H    45    1      0.2857480503    14.8196671876    -3.6578421618
   H    46    1     -1.8566695151    11.1817981641     3.1718317552
   H    47    1     -4.4826617856    15.7851611234    -1.0983680998
   H    48    1     -2.0528803139    17.4569537888     0.5538330063
   H    49    1     -4.0574640609    15.3205081783     2.2040852122
[GTO]
    1  0
  s      6  0
      3047.5248800000         0.0018347371
       457.3695180000         0.0140373228
       103.9486850000         0.0688426223
        29.2101553000         0.2321844432
         9.2866629600         0.4679413484
         3.1639269600         0.3623119853
  s      3  0
         7.8682723500        -0.1193324198
         1.8812885400        -0.1608541517
         0.5442492580         1.1434564378
  p      3  0
         7.8682723500         0.0689990666
         1.8812885400         0.3164239610
         0.5442492580         0.7443082909
  s      1  0
         0.1687144782         1.0000000000
  p      1  0
         0.1687144782         1.0000000000
  s      1  0
         0.0438000000         1.0000000000
  p      1  0
         0.0438000000         1.0000000000

    2  0
  s      6  0
      3047.5248800000         0.0018347371
       457.3695180000         0.0140373228
       103.9486850000         0.0688426223
        29.2101553000         0.2321844432
         9.2866629600         0.4679413484
         3.1639269600         0.3623119853
  s      3  0
         7.8682723500        -0.1193324198
         1.8812885400        -0.1608541517
         0.5442492580         1.1434564378
  p      3  0
         7.8682723500         0.0689990666
         1.8812885400         0.3164239610
         0.5442492580         0.7443082909
  s      1  0
         0.1687144782         1.0000000000
  p      1  0
         0.1687144782         1.0000000000
  s      1  0
         0.0438000000         1.0000000000
  p      1  0
         0.0438000000         1.0000000000

    3  0
  s      6  0
      3047.5248800000         0.0018347371
       457.3695180000         0.0140373228
       103.9486850000         0.0688426223
        29.2101553000         0.2321844432
         9.2866629600         0.4679413484
         3.1639269600         0.3623119853
  s      3  0
         7.8682723500        -0.1193324198
         1.8812885400        -0.1608541517
         0.5442492580         1.1434564378
  p      3  0
         7.8682723500         0.0689990666
         1.8812885400         0.3164239610
         0.5442492580         0.7443082909
  s      1  0
         0.1687144782         1.0000000000
  p      1  0
         0.1687144782         1.0000000000
  s      1  0
         0.0438000000         1.0000000000
  p      1  0
         0.0438000000         1.0000000000

    4  0
  s      6  0
      3047.5248800000         0.0018347371
       457.3695180000         0.0140373228
       103.9486850000         0.0688426223
        29.2101553000         0.2321844432
         9.2866629600         0.4679413484
         3.1639269600         0.3623119853
  s      3  0
         7.8682723500        -0.1193324198
         1.8812885400        -0.1608541517
         0.5442492580         1.1434564378
  p      3  0
         7.8682723500         0.0689990666
         1.8812885400         0.3164239610
         0.5442492580         0.7443082909
  s      1  0
         0.1687144782         1.0000000000
  p      1  0
         0.1687144782         1.0000000000
  s      1  0
         0.0438000000         1.0000000000
  p      1  0
         0.0438000000         1.0000000000

    5  0
  s      6  0
      3047.5248800000         0.0018347371
       457.3695180000         0.0140373228
       103.9486850000         0.0688426223
        29.2101553000         0.2321844432
         9.2866629600         0.4679413484
         3.1639269600         0.3623119853
  s      3  0
         7.8682723500        -0.1193324198
         1.8812885400        -0.1608541517
         0.5442492580         1.1434564378
  p      3  0
         7.8682723500         0.0689990666
         1.8812885400         0.3164239610
         0.5442492580         0.7443082909
  s      1  0
         0.1687144782         1.0000000000
  p      1  0
         0.1687144782         1.0000000000
  s      1  0
         0.0438000000         1.0000000000
  p      1  0
         0.0438000000         1.0000000000

    6  0
  s      6  0
      3047.5248800000         0.0018347371
       457.3695180000         0.0140373228
       103.9486850000         0.0688426223
        29.2101553000         0.2321844432
         9.2866629600         0.4679413484
         3.1639269600         0.3623119853
  s      3  0
         7.8682723500        -0.1193324198
         1.8812885400        -0.1608541517
         0.5442492580         1.1434564378
  p      3  0
         7.8682723500         0.0689990666
         1.8812885400         0.3164239610
         0.5442492580         0.7443082909
  s      1  0
         0.1687144782         1.0000000000
  p      1  0
         0.1687144782         1.0000000000
  s      1  0
         0.0438000000         1.0000000000
  p      1  0
         0.0438000000         1.0000000000

    7  0
  s      6  0
      3047.5248800000         0.0018347371
       457.3695180000         0.0140373228
       103.9486850000         0.0688426223
        29.2101553000         0.2321844432
         9.2866629600         0.4679413484
         3.1639269600         0.3623119853
  s      3  0
         7.8682723500        -0.1193324198
         1.8812885400        -0.1608541517
         0.5442492580         1.1434564378
  p      3  0
         7.8682723500         0.0689990666
         1.8812885400         0.3164239610
         0.5442492580         0.7443082909
  s      1  0
         0.1687144782         1.0000000000
  p      1  0
         0.1687144782         1.0000000000
  s      1  0
         0.0438000000         1.0000000000
  p      1  0
         0.0438000000         1.0000000000

    8  0
  s      6  0
      3047.5248800000         0.0018347371
       457.3695180000         0.0140373228
       103.9486850000         0.0688426223
        29.2101553000         0.2321844432
         9.2866629600         0.4679413484
         3.1639269600         0.3623119853
  s      3  0
         7.8682723500        -0.1193324198
         1.8812885400        -0.1608541517
         0.5442492580         1.1434564378
  p      3  0
         7.8682723500         0.0689990666
         1.8812885400         0.3164239610
         0.5442492580         0.7443082909
  s      1  0
         0.1687144782         1.0000000000
  p      1  0
         0.1687144782         1.0000000000
  s      1  0
         0.0438000000         1.0000000000
  p      1  0
         0.0438000000         1.0000000000

    9  0
  s      6  0
      3047.5248800000         0.0018347371
       457.3695180000         0.0140373228
       103.9486850000         0.0688426223
        29.2101553000         0.2321844432
         9.2866629600         0.4679413484
         3.1639269600         0.3623119853
  s      3  0
         7.8682723500        -0.1193324198
         1.8812885400        -0.1608541517
         0.5442492580         1.1434564378
  p      3  0
         7.8682723500         0.0689990666
         1.8812885400         0.3164239610
         0.5442492580         0.7443082909
  s      1  0
         0.1687144782         1.0000000000
  p      1  0
         0.1687144782         1.0000000000
  s      1  0
         0.0438000000         1.0000000000
  p      1  0
         0.0438000000         1.0000000000

   10  0
  s      6  0
      3047.5248800000         0.0018347371
       457.3695180000         0.0140373228
       103.9486850000         0.0688426223
        29.2101553000         0.2321844432
         9.2866629600         0.4679413484
         3.1639269600         0.3623119853
  s      3  0
         7.8682723500        -0.1193324198
         1.8812885400        -0.1608541517
         0.5442492580         1.1434564378
  p      3  0
         7.8682723500         0.0689990666
         1.8812885400         0.3164239610
         0.5442492580         0.7443082909
  s      1  0
         0.1687144782         1.0000000000
  p      1  0
         0.1687144782         1.0000000000
  s      1  0
         0.0438000000         1.0000000000
  p      1  0
         0.0438000000         1.0000000000

   11  0
  s      6  0
      3047.5248800000         0.0018347371
       457.3695180000         0.0140373228
       103.9486850000         0.0688426223
        29.2101553000         0.2321844432
         9.2866629600         0.4679413484
         3.1639269600         0.3623119853
  s      3  0
         7.8682723500        -0.1193324198
         1.8812885400        -0.1608541517
         0.5442492580         1.1434564378
  p      3  0
         7.8682723500         0.0689990666
         1.8812885400         0.3164239610
         0.5442492580         0.7443082909
  s      1  0
         0.1687144782         1.0000000000
  p      1  0
         0.1687144782         1.0000000000
  s      1  0
         0.0438000000         1.0000000000
  p      1  0
         0.0438000000         1.0000000000

   12  0
  s      6  0
      3047.5248800000         0.0018347371
       457.3695180000         0.0140373228
       103.9486850000         0.0688426223
        29.2101553000         0.2321844432
         9.2866629600         0.4679413484
         3.1639269600         0.3623119853
  s      3  0
         7.8682723500        -0.1193324198
         1.8812885400        -0.1608541517
         0.5442492580         1.1434564378
  p      3  0
         7.8682723500         0.0689990666
         1.8812885400         0.3164239610
         0.5442492580         0.7443082909
  s      1  0
         0.1687144782         1.0000000000
  p      1  0
         0.1687144782         1.0000000000
  s      1  0
         0.0438000000         1.0000000000
  p      1  0
         0.0438000000         1.0000000000

   13  0
  s      6  0
      4173.5114600000         0.0018347722
       627.4579110000         0.0139946270
       142.9020930000         0.0685865518
        40.2343293000         0.2322408730
        12.8202129000         0.4690699481
         4.3904370100         0.3604551991
  s      3  0
        11.6263618600        -0.1149611817
         2.7162798070        -0.1691174786
         0.7722183966         1.1458519471
  p      3  0
        11.6263618600         0.0675797439
         2.7162798070         0.3239072959
         0.7722183966         0.7408951398
  s      1  0
         0.2120314975         1.0000000000
  p      1  0
         0.2120314975         1.0000000000
  s      1  0
         0.0639000000         1.0000000000
  p      1  0
         0.0639000000         1.0000000000

   14  0
  s      6  0
      3047.5248800000         0.0018347371
       457.3695180000         0.0140373228
       103.9486850000         0.0688426223
        29.2101553000         0.2321844432
         9.2866629600         0.4679413484
         3.1639269600         0.3623119853
  s      3  0
         7.8682723500        -0.1193324198
         1.8812885400        -0.1608541517
         0.5442492580         1.1434564378
  p      3  0
         7.8682723500         0.0689990666
         1.8812885400         0.3164239610
         0.5442492580         0.7443082909
  s      1  0
         0.1687144782         1.0000000000
  p      1  0
         0.1687144782         1.0000000000
  s      1  0
         0.0438000000         1.0000000000
  p      1  0
         0.0438000000         1.0000000000

   15  0
  s      6  0
      3047.5248800000         0.0018347371
       457.3695180000         0.0140373228
       103.9486850000         0.0688426223
        29.2101553000         0.2321844432
         9.2866629600         0.4679413484
         3.1639269600         0.3623119853
  s      3  0
         7.8682723500        -0.1193324198
         1.8812885400        -0.1608541517
         0.5442492580         1.1434564378
  p      3  0
         7.8682723500         0.0689990666
         1.8812885400         0.3164239610
         0.5442492580         0.7443082909
  s      1  0
         0.1687144782         1.0000000000
  p      1  0
         0.1687144782         1.0000000000
  s      1  0
         0.0438000000         1.0000000000
  p      1  0
         0.0438000000         1.0000000000

   16  0
  s      6  0
      4173.5114600000         0.0018347722
       627.4579110000         0.0139946270
       142.9020930000         0.0685865518
        40.2343293000         0.2322408730
        12.8202129000         0.4690699481
         4.3904370100         0.3604551991
  s      3  0
        11.6263618600        -0.1149611817
         2.7162798070        -0.1691174786
         0.7722183966         1.1458519471
  p      3  0
        11.6263618600         0.0675797439
         2.7162798070         0.3239072959
         0.7722183966         0.7408951398
  s      1  0
         0.2120314975         1.0000000000
  p      1  0
         0.2120314975         1.0000000000
  s      1  0
         0.0639000000         1.0000000000
  p      1  0
         0.0639000000         1.0000000000

   17  0
  s      6  0
      3047.5248800000         0.0018347371
       457.3695180000         0.0140373228
       103.9486850000         0.0688426223
        29.2101553000         0.2321844432
         9.2866629600         0.4679413484
         3.1639269600         0.3623119853
  s      3  0
         7.8682723500        -0.1193324198
         1.8812885400        -0.1608541517
         0.5442492580         1.1434564378
  p      3  0
         7.8682723500         0.0689990666
         1.8812885400         0.3164239610
         0.5442492580         0.7443082909
  s      1  0
         0.1687144782         1.0000000000
  p      1  0
         0.1687144782         1.0000000000
  s      1  0
         0.0438000000         1.0000000000
  p      1  0
         0.0438000000         1.0000000000

   18  0
  s      6  0
      3047.5248800000         0.0018347371
       457.3695180000         0.0140373228
       103.9486850000         0.0688426223
        29.2101553000         0.2321844432
         9.2866629600         0.4679413484
         3.1639269600         0.3623119853
  s      3  0
         7.8682723500        -0.1193324198
         1.8812885400        -0.1608541517
         0.5442492580         1.1434564378
  p      3  0
         7.8682723500         0.0689990666
         1.8812885400         0.3164239610
         0.5442492580         0.7443082909
  s      1  0
         0.1687144782         1.0000000000
  p      1  0
         0.1687144782         1.0000000000
  s      1  0
         0.0438000000         1.0000000000
  p      1  0
         0.0438000000         1.0000000000

   19  0
  s      3  0
        18.7311369600         0.0334946043
         2.8253943650         0.2347269535
         0.6401216923         0.8137573261
  s      1  0
         0.1612777588         1.0000000000
  s      1  0
         0.0360000000         1.0000000000

   20  0
  s      3  0
        18.7311369600         0.0334946043
         2.8253943650         0.2347269535
         0.6401216923         0.8137573261
  s      1  0
         0.1612777588         1.0000000000
  s      1  0
         0.0360000000         1.0000000000

   21  0
  s      3  0
        18.7311369600         0.0334946043
         2.8253943650         0.2347269535
         0.6401216923         0.8137573261
  s      1  0
         0.1612777588         1.0000000000
  s      1  0
         0.0360000000         1.0000000000

   22  0
  s      3  0
        18.7311369600         0.0334946043
         2.8253943650         0.2347269535
         0.6401216923         0.8137573261
  s      1  0
         0.1612777588         1.0000000000
  s      1  0
         0.0360000000         1.0000000000

   23  0
  s      3  0
        18.7311369600         0.0334946043
         2.8253943650         0.2347269535
         0.6401216923         0.8137573261
  s      1  0
         0.1612777588         1.0000000000
  s      1  0
         0.0360000000         1.0000000000

   24  0
  s      3  0
        18.7311369600         0.0334946043
         2.8253943650         0.2347269535
         0.6401216923         0.8137573261
  s      1  0
         0.1612777588         1.0000000000
  s      1  0
         0.0360000000         1.0000000000

   25  0
  s      3  0
        18.7311369600         0.0334946043
         2.8253943650         0.2347269535
         0.6401216923         0.8137573261
  s      1  0
         0.1612777588         1.0000000000
  s      1  0
         0.0360000000         1.0000000000

   26  0
  s      3  0
        18.7311369600         0.0334946043
         2.8253943650         0.2347269535
         0.6401216923         0.8137573261
  s      1  0
         0.1612777588         1.0000000000
  s      1  0
         0.0360000000         1.0000000000

   27  0
  s      3  0
        18.7311369600         0.0334946043
         2.8253943650         0.2347269535
         0.6401216923         0.8137573261
  s      1  0
         0.1612777588         1.0000000000
  s      1  0
         0.0360000000         1.0000000000

   28  0
  s      3  0
        18.7311369600         0.0334946043
         2.8253943650         0.2347269535
         0.6401216923         0.8137573261
  s      1  0
         0.1612777588         1.0000000000
  s      1  0
         0.0360000000         1.0000000000

   29  0
  s      3  0
        18.7311369600         0.0334946043
         2.8253943650         0.2347269535
         0.6401216923         0.8137573261
  s      1  0
         0.1612777588         1.0000000000
  s      1  0
         0.0360000000         1.0000000000

   30  0
  s      3  0
        18.7311369600         0.0334946043
         2.8253943650         0.2347269535
         0.6401216923         0.8137573261
  s      1  0
         0.1612777588         1.0000000000
  s      1  0
         0.0360000000         1.0000000000

   31  0
  s      3  0
        18.7311369600         0.0334946043
         2.8253943650         0.2347269535
         0.6401216923         0.8137573261
  s      1  0
         0.1612777588         1.0000000000
  s      1  0
         0.0360000000         1.0000000000

   32  0
  s      3  0
        18.7311369600         0.0334946043
         2.8253943650         0.2347269535
         0.6401216923         0.8137573261
  s      1  0
         0.1612777588         1.0000000000
  s      1  0
         0.0360000000         1.0000000000

   33  0
  s      3  0
        18.7311369600         0.0334946043
         2.8253943650         0.2347269535
         0.6401216923         0.8137573261
  s      1  0
         0.1612777588         1.0000000000
  s      1  0
         0.0360000000         1.0000000000

   34  0
  s      3  0
        18.7311369600         0.0334946043
         2.8253943650         0.2347269535
         0.6401216923         0.8137573261
  s      1  0
         0.1612777588         1.0000000000
  s      1  0
         0.0360000000         1.0000000000

   35  0
  s      3  0
        18.7311369600         0.0334946043
         2.8253943650         0.2347269535
         0.6401216923         0.8137573261
  s      1  0
         0.1612777588         1.0000000000
  s      1  0
         0.0360000000         1.0000000000

   36  0
  s      3  0
        18.7311369600         0.0334946043
         2.8253943650         0.2347269535
         0.6401216923         0.8137573261
  s      1  0
         0.1612777588         1.0000000000
  s      1  0
         0.0360000000         1.0000000000

   37  0
  s      3  0
        18.7311369600         0.0334946043
         2.8253943650         0.2347269535
         0.6401216923         0.8137573261
  s      1  0
         0.1612777588         1.0000000000
  s      1  0
         0.0360000000         1.0000000000

   38  0
  s      3  0
        18.7311369600         0.0334946043
         2.8253943650         0.2347269535
         0.6401216923         0.8137573261
  s      1  0
         0.1612777588         1.0000000000
  s      1  0
         0.0360000000         1.0000000000

   39  0
  s      3  0
        18.7311369600         0.0334946043
         2.8253943650         0.2347269535
         0.6401216923         0.8137573261
  s      1  0
         0.1612777588         1.0000000000
  s      1  0
         0.0360000000         1.0000000000

   40  0
  s      3  0
        18.7311369600         0.0334946043
         2.8253943650         0.2347269535
         0.6401216923         0.8137573261
  s      1  0
         0.1612777588         1.0000000000
  s      1  0
         0.0360000000         1.0000000000

   41  0
  s      3  0
        18.7311369600         0.0334946043
         2.8253943650         0.2347269535
         0.6401216923         0.8137573261
  s      1  0
         0.1612777588         1.0000000000
  s      1  0
         0.0360000000         1.0000000000

   42  0
  s      3  0
        18.7311369600         0.0334946043
         2.8253943650         0.2347269535
         0.6401216923         0.8137573261
  s      1  0
         0.1612777588         1.0000000000
  s      1  0
         0.0360000000         1.0000000000

   43  0
  s      3  0
        18.7311369600         0.0334946043
         2.8253943650         0.2347269535
         0.6401216923         0.8137573261
  s      1  0
         0.1612777588         1.0000000000
  s      1  0
         0.0360000000         1.0000000000

   44  0
  s      3  0
        18.7311369600         0.0334946043
         2.8253943650         0.2347269535
         0.6401216923         0.8137573261
  s      1  0
         0.1612777588         1.0000000000
  s      1  0
         0.0360000000         1.0000000000

   45  0
  s      3  0
        18.7311369600         0.0334946043
         2.8253943650         0.2347269535
         0.6401216923         0.8137573261
  s      1  0
         0.1612777588         1.0000000000
  s      1  0
         0.0360000000         1.0000000000

   46  0
  s      3  0
        18.7311369600         0.0334946043
         2.8253943650         0.2347269535
         0.6401216923         0.8137573261
  s      1  0
         0.1612777588         1.0000000000
  s      1  0
         0.0360000000         1.0000000000

   47  0
  s      3  0
        18.7311369600         0.0334946043
         2.8253943650         0.2347269535
         0.6401216923         0.8137573261
  s      1  0
         0.1612777588         1.0000000000
  s      1  0
         0.0360000000         1.0000000000

   48  0
  s      3  0
        18.7311369600         0.0334946043
         2.8253943650         0.2347269535
         0.6401216923         0.8137573261
  s      1  0
         0.1612777588         1.0000000000
  s      1  0
         0.0360000000         1.0000000000

   49  0
  s      3  0
        18.7311369600         0.0334946043
         2.8253943650         0.2347269535
         0.6401216923         0.8137573261
  s      1  0
         0.1612777588         1.0000000000
  s      1  0
         0.0360000000         1.0000000000

[5D]
[9G]
[MO]
Sym= a    
Ene=  -0.14445880085404E+02
Spin= Alpha
Occup=       2.0000000000
     1   -0.000001431014
     2   -0.000013772546
     3   -0.000002328953
     4    0.000001729786
     5   -0.000002210204
     6    0.000096192746
     7    0.000022870817
     8    0.000004037664
     9    0.000022910623
    10    0.003143196930
    11    0.000278597543
    12    0.000486037987
    13    0.000414845125
    14    0.000001429496
    15    0.000013080065
    16    0.000001053010
    17   -0.000001357970
    18   -0.000000449273
    19   -0.000090691468
    20    0.000015758059
    21    0.000030084594
    22    0.000013350268
    23   -0.004833346081
    24    0.001302162436
    25    0.001153066971
    26    0.000962508618
    27    0.000000278838
    28    0.000001207812
    29    0.000002563408
    30    0.000003089505
    31    0.000000933786
    32   -0.000012523399
    33   -0.000038786404
    34   -0.000051048441
    35   -0.000030924518
    36    0.004062490391
    37    0.001238603600
    38   -0.002293290071
    39    0.001082355367
    40   -0.000000815103
    41   -0.000006953983
    42   -0.000000445136
    43    0.000003610048
    44   -0.000000382425
    45    0.000063872888
    46   -0.000029871352
    47   -0.000035054444
    48   -0.000004630297
    49    0.001432925464
    50    0.000314070099
    51    0.005534420674
    52    0.000225681002
    53   -0.000001391665
    54   -0.000011007480
    55   -0.000007758675
    56   -0.000004645379
    57   -0.000000269448
    58    0.000057575862
    59    0.000081446057
    60    0.000075541308
    61    0.000013588865
    62   -0.017290297348
    63   -0.002789260721
    64   -0.007250083609
    65   -0.002057190931
    66    0.000001925179
    67    0.000016995291
    68   -0.000005727196
    69    0.000005086749
    70   -0.000010611455
    71   -0.000088710590
    72    0.000033340726
    73   -0.000011950390
    74    0.000077644941
    75    0.011383686605
    76   -0.002173166175
    77    0.001146174156
    78   -0.002024801009
    79   -0.000002457398
    80   -0.000022477231
    81   -0.000002728412
    82   -0.000018502450
    83   -0.000004958988
    84    0.000099943650
    85    0.000079456095
    86    0.000086805751
    87    0.000030412991
    88   -0.001653073534
    89    0.000007146844
    90   -0.007041562182
    91   -0.000597926778
    92   -0.000002278197
    93   -0.000024522881
    94    0.000006615283
    95   -0.000004377971
    96   -0.000003546788
    97    0.000061522891
    98   -0.000101984971
    99    0.000076997324
   100    0.000104999019
   101    0.000622876498
   102    0.001970444811
   103    0.004184176212
   104    0.001810596362
   105    0.000007034342
   106    0.000063407064
   107   -0.000020622377
   108   -0.000004298880
   109    0.000021444554
   110   -0.000263786989
   111    0.000216942174
   112    0.000001460462
   113   -0.000258156412
   114    0.011936728132
   115   -0.001287274976
   116   -0.004109448200
   117    0.000178091726
   118   -0.000007993184
   119   -0.000068018318
   120    0.000023986240
   121   -0.000017438101
   122   -0.000022882915
   123    0.000362538955
   124   -0.000358555566
   125    0.000260992883
   126    0.000347327036
   127    0.011171176835
   128   -0.002422105589
   129    0.010358555666
   130   -0.002414463448
   131    0.000020172665
   132    0.000165951574
   133    0.000004471274
   134    0.000005293395
   135    0.000115079402
   136   -0.001164705824
   137    0.000258917550
   138   -0.000295122659
   139   -0.001189070091
   140    0.011332867649
   141    0.002880241267
   142    0.013438914529
   143   -0.000333354179
   144    0.000002018955
   145    0.000047441141
   146    0.000123714354
   147   -0.000048699795
   148   -0.000066844822
   149   -0.001297337538
   150   -0.001142120758
   151   -0.000197251501
   152    0.000915952070
   153   -0.069046593574
   154    0.008884889267
   155   -0.005638477280
   156    0.010743029730
   157   -0.002891424336