[Molden Format]
[Atoms] AU
   C     1    6      2.9597114556   -17.1307990845    -1.2681485067
   C     2    6      2.0984739902   -14.6195379842    -0.0826750397
   C     3    6     -0.6925431299   -14.0047874263    -0.6475766853
   C     4    6     -1.6822664167   -11.5693808187     0.6167277883
   C     5    6     -0.4964508623    -9.1127229498    -0.4048292665
   C     6    6     -1.5979615540    -6.7146492080     0.8243371582
   C     7    6     -0.4281491322    -4.2546084214    -0.2008924487
   C     8    6     -1.5101641722    -1.8563289917     1.0443312427
   C     9    6     -0.3356203519     0.5979519477     0.0089481453
   C    10    6     -1.4027495697     2.9936492527     1.2766212510
   C    11    6     -0.2182271763     5.4373692880     0.2159277777
   C    12    6     -1.2922491023     7.7916631148     1.5352123756
   N    13    7     -0.1719232522    10.1995001420     0.5042018898
   C    14    6      2.0240053703    11.1064363334     1.5004612217
   C    15    6      3.1430304960    13.2691195043     0.5192912678
   C    16    6      1.9935704694    14.5202238797    -1.5134184715
   C    17    6     -0.2633318700    13.5600702823    -2.5140678848
   C    18    6     -1.3148011684    11.3911015917    -1.4730564877
   H    19    1      1.8275240553   -18.7170270309    -0.5584067457
   H    20    1      4.9466477347   -17.5287935616    -0.8354142419
   H    21    1      2.7581154357   -17.0885507743    -3.3323629916
   H    22    1      2.3700093340   -14.6976445150     1.9783986960
   H    23    1      3.3158707467   -13.0864615410    -0.7769375566
   H    24    1     -1.8610416066   -15.6047986961    -0.0177405411
   H    25    1     -0.9609302898   -13.8668786609    -2.7072032491
   H    26    1     -1.3571962924   -11.6858273645     2.6692525869
   H    27    1     -3.7433958673   -11.4702244351     0.3586360028
   H    28    1      1.5588039188    -9.1415965572    -0.1017723438
   H    29    1     -0.7863207645    -9.0242429475    -2.4642929275
   H    30    1     -1.3077819249    -6.8074809556     2.8827321915
   H    31    1     -3.6566446731    -6.6737831088     0.5248485984
   H    32    1     -0.7319689057    -4.1583232381    -2.2569452235
   H    33    1      1.6320690531    -4.3060174138     0.0856002853
   H    34    1     -3.5703796074    -1.8066762188     0.7610705494
   H    35    1     -1.2013940037    -1.9533340735     3.0992457658
   H    36    1     -0.6602883418     0.7012589063    -2.0427212289
   H    37    1      1.7256826399     0.5381453683     0.2788674074
   H    38    1     -1.0679449874     2.8900434799     3.3259479469
   H    39    1     -3.4641958038     3.0487942889     1.0125802899
   H    40    1      1.8423207912     5.3791768059     0.4665778984
   H    41    1     -0.5787763406     5.5587653446    -1.8253721036
   H    42    1     -0.8980242951     7.7653808916     3.5630876619
   H    43    1     -3.3383416669     7.9268497005     1.2856417014
   H    44    1      2.8188067267    10.0614950340     3.0686202796
   H    45    1      4.8833239003    13.9592077004     1.3454040389
   H    46    1      2.8378775220    16.2129913149    -2.2992176105
   H    47    1     -1.2085077308    14.4792831992    -4.0790104374
   H    48    1     -3.0530360766    10.5620569176    -2.1611557113
[GTO]
    1  0
  s      6  0
      3047.5248800000         0.0018347371
       457.3695180000         0.0140373228
       103.9486850000         0.0688426223
        29.2101553000         0.2321844432
         9.2866629600         0.4679413484
         3.1639269600         0.3623119853
  s      3  0
         7.8682723500        -0.1193324198
         1.8812885400        -0.1608541517
         0.5442492580         1.1434564378
  p      3  0
         7.8682723500         0.0689990666
         1.8812885400         0.3164239610
         0.5442492580         0.7443082909
  s      1  0
         0.1687144782         1.0000000000
  p      1  0
         0.1687144782         1.0000000000
  s      1  0
         0.0438000000         1.0000000000
  p      1  0
         0.0438000000         1.0000000000

    2  0
  s      6  0
      3047.5248800000         0.0018347371
       457.3695180000         0.0140373228
       103.9486850000         0.0688426223
        29.2101553000         0.2321844432
         9.2866629600         0.4679413484
         3.1639269600         0.3623119853
  s      3  0
         7.8682723500        -0.1193324198
         1.8812885400        -0.1608541517
         0.5442492580         1.1434564378
  p      3  0
         7.8682723500         0.0689990666
         1.8812885400         0.3164239610
         0.5442492580         0.7443082909
  s      1  0
         0.1687144782         1.0000000000
  p      1  0
         0.1687144782         1.0000000000
  s      1  0
         0.0438000000         1.0000000000
  p      1  0
         0.0438000000         1.0000000000

    3  0
  s      6  0
      3047.5248800000         0.0018347371
       457.3695180000         0.0140373228
       103.9486850000         0.0688426223
        29.2101553000         0.2321844432
         9.2866629600         0.4679413484
         3.1639269600         0.3623119853
  s      3  0
         7.8682723500        -0.1193324198
         1.8812885400        -0.1608541517
         0.5442492580         1.1434564378
  p      3  0
         7.8682723500         0.0689990666
         1.8812885400         0.3164239610
         0.5442492580         0.7443082909
  s      1  0
         0.1687144782         1.0000000000
  p      1  0
         0.1687144782         1.0000000000
  s      1  0
         0.0438000000         1.0000000000
  p      1  0
         0.0438000000         1.0000000000

    4  0
  s      6  0
      3047.5248800000         0.0018347371
       457.3695180000         0.0140373228
       103.9486850000         0.0688426223
        29.2101553000         0.2321844432
         9.2866629600         0.4679413484
         3.1639269600         0.3623119853
  s      3  0
         7.8682723500        -0.1193324198
         1.8812885400        -0.1608541517
         0.5442492580         1.1434564378
  p      3  0
         7.8682723500         0.0689990666
         1.8812885400         0.3164239610
         0.5442492580         0.7443082909
  s      1  0
         0.1687144782         1.0000000000
  p      1  0
         0.1687144782         1.0000000000
  s      1  0
         0.0438000000         1.0000000000
  p      1  0
         0.0438000000         1.0000000000

    5  0
  s      6  0
      3047.5248800000         0.0018347371
       457.3695180000         0.0140373228
       103.9486850000         0.0688426223
        29.2101553000         0.2321844432
         9.2866629600         0.4679413484
         3.1639269600         0.3623119853
  s      3  0
         7.8682723500        -0.1193324198
         1.8812885400        -0.1608541517
         0.5442492580         1.1434564378
  p      3  0
         7.8682723500         0.0689990666
         1.8812885400         0.3164239610
         0.5442492580         0.7443082909
  s      1  0
         0.1687144782         1.0000000000
  p      1  0
         0.1687144782         1.0000000000
  s      1  0
         0.0438000000         1.0000000000
  p      1  0
         0.0438000000         1.0000000000

    6  0
  s      6  0
      3047.5248800000         0.0018347371
       457.3695180000         0.0140373228
       103.9486850000         0.0688426223
        29.2101553000         0.2321844432
         9.2866629600         0.4679413484
         3.1639269600         0.3623119853
  s      3  0
         7.8682723500        -0.1193324198
         1.8812885400        -0.1608541517
         0.5442492580         1.1434564378
  p      3  0
         7.8682723500         0.0689990666
         1.8812885400         0.3164239610
         0.5442492580         0.7443082909
  s      1  0
         0.1687144782         1.0000000000
  p      1  0
         0.1687144782         1.0000000000
  s      1  0
         0.0438000000         1.0000000000
  p      1  0
         0.0438000000         1.0000000000

    7  0
  s      6  0
      3047.5248800000         0.0018347371
       457.3695180000         0.0140373228
       103.9486850000         0.0688426223
        29.2101553000         0.2321844432
         9.2866629600         0.4679413484
         3.1639269600         0.3623119853
  s      3  0
         7.8682723500        -0.1193324198
         1.8812885400        -0.1608541517
         0.5442492580         1.1434564378
  p      3  0
         7.8682723500         0.0689990666
         1.8812885400         0.3164239610
         0.5442492580         0.7443082909
  s      1  0
         0.1687144782         1.0000000000
  p      1  0
         0.1687144782         1.0000000000
  s      1  0
         0.0438000000         1.0000000000
  p      1  0
         0.0438000000         1.0000000000

    8  0
  s      6  0
      3047.5248800000         0.0018347371
       457.3695180000         0.0140373228
       103.9486850000         0.0688426223
        29.2101553000         0.2321844432
         9.2866629600         0.4679413484
         3.1639269600         0.3623119853
  s      3  0
         7.8682723500        -0.1193324198
         1.8812885400        -0.1608541517
         0.5442492580         1.1434564378
  p      3  0
         7.8682723500         0.0689990666
         1.8812885400         0.3164239610
         0.5442492580         0.7443082909
  s      1  0
         0.1687144782         1.0000000000
  p      1  0
         0.1687144782         1.0000000000
  s      1  0
         0.0438000000         1.0000000000
  p      1  0
         0.0438000000         1.0000000000

    9  0
  s      6  0
      3047.5248800000         0.0018347371
       457.3695180000         0.0140373228
       103.9486850000         0.0688426223
        29.2101553000         0.2321844432
         9.2866629600         0.4679413484
         3.1639269600         0.3623119853
  s      3  0
         7.8682723500        -0.1193324198
         1.8812885400        -0.1608541517
         0.5442492580         1.1434564378
  p      3  0
         7.8682723500         0.0689990666
         1.8812885400         0.3164239610
         0.5442492580         0.7443082909
  s      1  0
         0.1687144782         1.0000000000
  p      1  0
         0.1687144782         1.0000000000
  s      1  0
         0.0438000000         1.0000000000
  p      1  0
         0.0438000000         1.0000000000

   10  0
  s      6  0
      3047.5248800000         0.0018347371
       457.3695180000         0.0140373228
       103.9486850000         0.0688426223
        29.2101553000         0.2321844432
         9.2866629600         0.4679413484
         3.1639269600         0.3623119853
  s      3  0
         7.8682723500        -0.1193324198
         1.8812885400        -0.1608541517
         0.5442492580         1.1434564378
  p      3  0
         7.8682723500         0.0689990666
         1.8812885400         0.3164239610
         0.5442492580         0.7443082909
  s      1  0
         0.1687144782         1.0000000000
  p      1  0
         0.1687144782         1.0000000000
  s      1  0
         0.0438000000         1.0000000000
  p      1  0
         0.0438000000         1.0000000000

   11  0
  s      6  0
      3047.5248800000         0.0018347371
       457.3695180000         0.0140373228
       103.9486850000         0.0688426223
        29.2101553000         0.2321844432
         9.2866629600         0.4679413484
         3.1639269600         0.3623119853
  s      3  0
         7.8682723500        -0.1193324198
         1.8812885400        -0.1608541517
         0.5442492580         1.1434564378
  p      3  0
         7.8682723500         0.0689990666
         1.8812885400         0.3164239610
         0.5442492580         0.7443082909
  s      1  0
         0.1687144782         1.0000000000
  p      1  0
         0.1687144782         1.0000000000
  s      1  0
         0.0438000000         1.0000000000
  p      1  0
         0.0438000000         1.0000000000

   12  0
  s      6  0
      3047.5248800000         0.0018347371
       457.3695180000         0.0140373228
       103.9486850000         0.0688426223
        29.2101553000         0.2321844432
         9.2866629600         0.4679413484
         3.1639269600         0.3623119853
  s      3  0
         7.8682723500        -0.1193324198
         1.8812885400        -0.1608541517
         0.5442492580         1.1434564378
  p      3  0
         7.8682723500         0.0689990666
         1.8812885400         0.3164239610
         0.5442492580         0.7443082909
  s      1  0
         0.1687144782         1.0000000000
  p      1  0
         0.1687144782         1.0000000000
  s      1  0
         0.0438000000         1.0000000000
  p      1  0
         0.0438000000         1.0000000000

   13  0
  s      6  0
      4173.5114600000         0.0018347722
       627.4579110000         0.0139946270
       142.9020930000         0.0685865518
        40.2343293000         0.2322408730
        12.8202129000         0.4690699481
         4.3904370100         0.3604551991
  s      3  0
        11.6263618600        -0.1149611817
         2.7162798070        -0.1691174786
         0.7722183966         1.1458519471
  p      3  0
        11.6263618600         0.0675797439
         2.7162798070         0.3239072959
         0.7722183966         0.7408951398
  s      1  0
         0.2120314975         1.0000000000
  p      1  0
         0.2120314975         1.0000000000
  s      1  0
         0.0639000000         1.0000000000
  p      1  0
         0.0639000000         1.0000000000

   14  0
  s      6  0
      3047.5248800000         0.0018347371
       457.3695180000         0.0140373228
       103.9486850000         0.0688426223
        29.2101553000         0.2321844432
         9.2866629600         0.4679413484
         3.1639269600         0.3623119853
  s      3  0
         7.8682723500        -0.1193324198
         1.8812885400        -0.1608541517
         0.5442492580         1.1434564378
  p      3  0
         7.8682723500         0.0689990666
         1.8812885400         0.3164239610
         0.5442492580         0.7443082909
  s      1  0
         0.1687144782         1.0000000000
  p      1  0
         0.1687144782         1.0000000000
  s      1  0
         0.0438000000         1.0000000000
  p      1  0
         0.0438000000         1.0000000000

   15  0
  s      6  0
      3047.5248800000         0.0018347371
       457.3695180000         0.0140373228
       103.9486850000         0.0688426223
        29.2101553000         0.2321844432
         9.2866629600         0.4679413484
         3.1639269600         0.3623119853
  s      3  0
         7.8682723500        -0.1193324198
         1.8812885400        -0.1608541517
         0.5442492580         1.1434564378
  p      3  0
         7.8682723500         0.0689990666
         1.8812885400         0.3164239610
         0.5442492580         0.7443082909
  s      1  0
         0.1687144782         1.0000000000
  p      1  0
         0.1687144782         1.0000000000
  s      1  0
         0.0438000000         1.0000000000
  p      1  0
         0.0438000000         1.0000000000

   16  0
  s      6  0
      3047.5248800000         0.0018347371
       457.3695180000         0.0140373228
       103.9486850000         0.0688426223
        29.2101553000         0.2321844432
         9.2866629600         0.4679413484
         3.1639269600         0.3623119853
  s      3  0
         7.8682723500        -0.1193324198
         1.8812885400        -0.1608541517
         0.5442492580         1.1434564378
  p      3  0
         7.8682723500         0.0689990666
         1.8812885400         0.3164239610
         0.5442492580         0.7443082909
  s      1  0
         0.1687144782         1.0000000000
  p      1  0
         0.1687144782         1.0000000000
  s      1  0
         0.0438000000         1.0000000000
  p      1  0
         0.0438000000         1.0000000000

   17  0
  s      6  0
      3047.5248800000         0.0018347371
       457.3695180000         0.0140373228
       103.9486850000         0.0688426223
        29.2101553000         0.2321844432
         9.2866629600         0.4679413484
         3.1639269600         0.3623119853
  s      3  0
         7.8682723500        -0.1193324198
         1.8812885400        -0.1608541517
         0.5442492580         1.1434564378
  p      3  0
         7.8682723500         0.0689990666
         1.8812885400         0.3164239610
         0.5442492580         0.7443082909
  s      1  0
         0.1687144782         1.0000000000
  p      1  0
         0.1687144782         1.0000000000
  s      1  0
         0.0438000000         1.0000000000
  p      1  0
         0.0438000000         1.0000000000

   18  0
  s      6  0
      3047.5248800000         0.0018347371
       457.3695180000         0.0140373228
       103.9486850000         0.0688426223
        29.2101553000         0.2321844432
         9.2866629600         0.4679413484
         3.1639269600         0.3623119853
  s      3  0
         7.8682723500        -0.1193324198
         1.8812885400        -0.1608541517
         0.5442492580         1.1434564378
  p      3  0
         7.8682723500         0.0689990666
         1.8812885400         0.3164239610
         0.5442492580         0.7443082909
  s      1  0
         0.1687144782         1.0000000000
  p      1  0
         0.1687144782         1.0000000000
  s      1  0
         0.0438000000         1.0000000000
  p      1  0
         0.0438000000         1.0000000000

   19  0
  s      3  0
        18.7311369600         0.0334946043
         2.8253943650         0.2347269535
         0.6401216923         0.8137573261
  s      1  0
         0.1612777588         1.0000000000
  s      1  0
         0.0360000000         1.0000000000

   20  0
  s      3  0
        18.7311369600         0.0334946043
         2.8253943650         0.2347269535
         0.6401216923         0.8137573261
  s      1  0
         0.1612777588         1.0000000000
  s      1  0
         0.0360000000         1.0000000000

   21  0
  s      3  0
        18.7311369600         0.0334946043
         2.8253943650         0.2347269535
         0.6401216923         0.8137573261
  s      1  0
         0.1612777588         1.0000000000
  s      1  0
         0.0360000000         1.0000000000

   22  0
  s      3  0
        18.7311369600         0.0334946043
         2.8253943650         0.2347269535
         0.6401216923         0.8137573261
  s      1  0
         0.1612777588         1.0000000000
  s      1  0
         0.0360000000         1.0000000000

   23  0
  s      3  0
        18.7311369600         0.0334946043
         2.8253943650         0.2347269535
         0.6401216923         0.8137573261
  s      1  0
         0.1612777588         1.0000000000
  s      1  0
         0.0360000000         1.0000000000

   24  0
  s      3  0
        18.7311369600         0.0334946043
         2.8253943650         0.2347269535
         0.6401216923         0.8137573261
  s      1  0
         0.1612777588         1.0000000000
  s      1  0
         0.0360000000         1.0000000000

   25  0
  s      3  0
        18.7311369600         0.0334946043
         2.8253943650         0.2347269535
         0.6401216923         0.8137573261
  s      1  0
         0.1612777588         1.0000000000
  s      1  0
         0.0360000000         1.0000000000

   26  0
  s      3  0
        18.7311369600         0.0334946043
         2.8253943650         0.2347269535
         0.6401216923         0.8137573261
  s      1  0
         0.1612777588         1.0000000000
  s      1  0
         0.0360000000         1.0000000000

   27  0
  s      3  0
        18.7311369600         0.0334946043
         2.8253943650         0.2347269535
         0.6401216923         0.8137573261
  s      1  0
         0.1612777588         1.0000000000
  s      1  0
         0.0360000000         1.0000000000

   28  0
  s      3  0
        18.7311369600         0.0334946043
         2.8253943650         0.2347269535
         0.6401216923         0.8137573261
  s      1  0
         0.1612777588         1.0000000000
  s      1  0
         0.0360000000         1.0000000000

   29  0
  s      3  0
        18.7311369600         0.0334946043
         2.8253943650         0.2347269535
         0.6401216923         0.8137573261
  s      1  0
         0.1612777588         1.0000000000
  s      1  0
         0.0360000000         1.0000000000

   30  0
  s      3  0
        18.7311369600         0.0334946043
         2.8253943650         0.2347269535
         0.6401216923         0.8137573261
  s      1  0
         0.1612777588         1.0000000000
  s      1  0
         0.0360000000         1.0000000000

   31  0
  s      3  0
        18.7311369600         0.0334946043
         2.8253943650         0.2347269535
         0.6401216923         0.8137573261
  s      1  0
         0.1612777588         1.0000000000
  s      1  0
         0.0360000000         1.0000000000

   32  0
  s      3  0
        18.7311369600         0.0334946043
         2.8253943650         0.2347269535
         0.6401216923         0.8137573261
  s      1  0
         0.1612777588         1.0000000000
  s      1  0
         0.0360000000         1.0000000000

   33  0
  s      3  0
        18.7311369600         0.0334946043
         2.8253943650         0.2347269535
         0.6401216923         0.8137573261
  s      1  0
         0.1612777588         1.0000000000
  s      1  0
         0.0360000000         1.0000000000

   34  0
  s      3  0
        18.7311369600         0.0334946043
         2.8253943650         0.2347269535
         0.6401216923         0.8137573261
  s      1  0
         0.1612777588         1.0000000000
  s      1  0
         0.0360000000         1.0000000000

   35  0
  s      3  0
        18.7311369600         0.0334946043
         2.8253943650         0.2347269535
         0.6401216923         0.8137573261
  s      1  0
         0.1612777588         1.0000000000
  s      1  0
         0.0360000000         1.0000000000

   36  0
  s      3  0
        18.7311369600         0.0334946043
         2.8253943650         0.2347269535
         0.6401216923         0.8137573261
  s      1  0
         0.1612777588         1.0000000000
  s      1  0
         0.0360000000         1.0000000000

   37  0
  s      3  0
        18.7311369600         0.0334946043
         2.8253943650         0.2347269535
         0.6401216923         0.8137573261
  s      1  0
         0.1612777588         1.0000000000
  s      1  0
         0.0360000000         1.0000000000

   38  0
  s      3  0
        18.7311369600         0.0334946043
         2.8253943650         0.2347269535
         0.6401216923         0.8137573261
  s      1  0
         0.1612777588         1.0000000000
  s      1  0
         0.0360000000         1.0000000000

   39  0
  s      3  0
        18.7311369600         0.0334946043
         2.8253943650         0.2347269535
         0.6401216923         0.8137573261
  s      1  0
         0.1612777588         1.0000000000
  s      1  0
         0.0360000000         1.0000000000

   40  0
  s      3  0
        18.7311369600         0.0334946043
         2.8253943650         0.2347269535
         0.6401216923         0.8137573261
  s      1  0
         0.1612777588         1.0000000000
  s      1  0
         0.0360000000         1.0000000000

   41  0
  s      3  0
        18.7311369600         0.0334946043
         2.8253943650         0.2347269535
         0.6401216923         0.8137573261
  s      1  0
         0.1612777588         1.0000000000
  s      1  0
         0.0360000000         1.0000000000

   42  0
  s      3  0
        18.7311369600         0.0334946043
         2.8253943650         0.2347269535
         0.6401216923         0.8137573261
  s      1  0
         0.1612777588         1.0000000000
  s      1  0
         0.0360000000         1.0000000000

   43  0
  s      3  0
        18.7311369600         0.0334946043
         2.8253943650         0.2347269535
         0.6401216923         0.8137573261
  s      1  0
         0.1612777588         1.0000000000
  s      1  0
         0.0360000000         1.0000000000

   44  0
  s      3  0
        18.7311369600         0.0334946043
         2.8253943650         0.2347269535
         0.6401216923         0.8137573261
  s      1  0
         0.1612777588         1.0000000000
  s      1  0
         0.0360000000         1.0000000000

   45  0
  s      3  0
        18.7311369600         0.0334946043
         2.8253943650         0.2347269535
         0.6401216923         0.8137573261
  s      1  0
         0.1612777588         1.0000000000
  s      1  0
         0.0360000000         1.0000000000

   46  0
  s      3  0
        18.7311369600         0.0334946043
         2.8253943650         0.2347269535
         0.6401216923         0.8137573261
  s      1  0
         0.1612777588         1.0000000000
  s      1  0
         0.0360000000         1.0000000000

   47  0
  s      3  0
        18.7311369600         0.0334946043
         2.8253943650         0.2347269535
         0.6401216923         0.8137573261
  s      1  0
         0.1612777588         1.0000000000
  s      1  0
         0.0360000000         1.0000000000

   48  0
  s      3  0
        18.7311369600         0.0334946043
         2.8253943650         0.2347269535
         0.6401216923         0.8137573261
  s      1  0
         0.1612777588         1.0000000000
  s      1  0
         0.0360000000         1.0000000000

[5D]
[9G]
[MO]
Sym= a    
Ene=  -0.14464058658868E+02
Spin= Alpha
Occup=       2.0000000000
     1   -0.000001727417
     2   -0.000019594334
     3    0.000001341597
     4   -0.000005538389
     5   -0.000007555733
     6    0.000058744491
     7   -0.000005065340
     8    0.000009932146
     9    0.000062162054
    10    0.001604353597
    11   -0.000055193847
    12    0.000303664987
    13    0.000224220698
    14   -0.000000294298
    15   -0.000006020454
    16   -0.000004473124
    17    0.000004538799
    18    0.000004430657
    19    0.000018256524
    20    0.000040233070
    21    0.000003850486
    22   -0.000024377066
    23   -0.003034505332
    24    0.000605702503
    25    0.000600703296
    26    0.000268957438
    27    0.000002034355
    28    0.000024413269
    29   -0.000003607637
    30    0.000013176652
    31    0.000001552843
    32   -0.000088750893
    33    0.000021352836
    34   -0.000070348716
    35    0.000016130396
    36    0.001889827136
    37   -0.000045948913
    38   -0.001281434158
    39    0.001402435732
    40   -0.000000079737
    41   -0.000007431945
    42    0.000001259177
    43   -0.000028418711
    44   -0.000003421462
    45   -0.000014844960
    46   -0.000020245592
    47    0.000071375506
    48    0.000005600845
    49    0.012034734075
    50    0.000734894482
    51    0.006569033619
    52   -0.000886331001
    53   -0.000004455304
    54   -0.000036796434
    55    0.000011019120
    56    0.000017919437
    57   -0.000010956249
    58    0.000266779205
    59   -0.000109034169
    60    0.000055545220
    61    0.000123641877
    62   -0.020478126724
    63    0.003185369340
    64   -0.004701640807
    65   -0.003400096046
    66    0.000009148440
    67    0.000082321015
    68    0.000011197292
    69   -0.000025886142
    70   -0.000012328915
    71   -0.000482691960
    72   -0.000156280594
    73    0.000148767928
    74    0.000163222156
    75    0.027588875197
    76    0.002001451752
    77    0.011972050964
    78   -0.000990356386
    79   -0.000004737310
    80   -0.000053787350
    81    0.000013556095
    82    0.000000890681
    83   -0.000012360474
    84    0.000204180957
    85   -0.000039317279
    86   -0.000101630144
    87    0.000010742212
    88   -0.000445130669
    89   -0.002878946238
    90   -0.006239061169
    91    0.002254826720
    92   -0.000004033573
    93   -0.000041432267
    94    0.000001876885
    95    0.000025109875
    96   -0.000004157744
    97    0.000110227048
    98    0.000035098160
    99   -0.000190314630
   100   -0.000015797462
   101   -0.018403528951
   102   -0.002831081912
   103    0.028399358457
   104    0.004716710694
   105    0.000008513399
   106    0.000070782701
   107    0.000003210371
   108   -0.000027132394
   109   -0.000002473062
   110   -0.000226090185
   111   -0.000049354287
   112    0.000036500116
   113    0.000031186792
   114   -0.016012803941
   115    0.000949552770
   116   -0.029696155698
   117   -0.002869267445
   118   -0.000025205043
   119   -0.000233888388
   120    0.000009992474
   121   -0.000021911508
   122   -0.000013106608
   123    0.001091156717
   124   -0.000078355852
   125    0.000469514730
   126    0.000125444365
   127    0.020482609986
   128    0.006037734661
   129    0.019359249111
   130   -0.004662066480
   131    0.000005207048
   132   -0.000154118888
   133   -0.000089733241
   134   -0.000269361228
   135    0.000075886137
   136   -0.000699139911
   137    0.000740579947
   138    0.000504404717
   139   -0.000723190570
   140    0.004227310690
   141    0.001489955105
   142   -0.014113032810
   143   -0.002493844396
   144    0.000017838898
   145   -0.000277727706
   146    0.000053890841
   147    0.000077401076
   148   -0.000047601323
   149    0.001949771882
   150    0.000486358100
   151    0.001532810300
   152   -0.000473311132
   153   -0.031033634058
   154   -0.004697925638
   155    0.000397658705
   156    0.004847302374
   157    0.995511181057
   158    0.035110415225
   159    0.000304330650
   160    0.000459586555
   161   -0.000296772228
   162   -0.041254169294
   163   -0.002793194665
   164   -0.005018324288
   165    0.002681094818
   166    0.032612739923
   167   -0.002121870232
   168   -0.009021018767
   169    0.001787206297
   170    0.000063588170