[Molden Format]
[Atoms] AU
   C     1    6     -2.3162603129   -15.9383331014    -0.3840960152
   C     2    6     -2.0791959928   -13.1273119988    -1.0918073282
   C     3    6      0.1887861623   -11.8204418113     0.1812429221
   C     4    6      0.4422789989    -8.9986901940    -0.4916717043
   C     5    6      2.6688890143    -7.7002908741     0.8653859048
   C     6    6      3.1075269914    -4.9186089155     0.1070205109
   C     7    6      0.9133508821    -3.1153385070     0.7567050252
   C     8    6      1.5777925821    -0.3182188359     0.3017839713
   C     9    6     -0.6498220444     1.4987756336     0.7508668383
   C    10    6      0.1177104571     4.3003904188     0.5376281130
   C    11    6     -2.1721147564     6.0959266268     0.7192423844
   C    12    6     -1.6893433634     8.8501799594     1.4877036301
   N    13    7     -0.2498212409    10.5795660633    -0.3832956746
   C    14    6      2.5522308504     9.9498382150    -0.4748793261
   C    15    6     -1.3516438168    10.4096466021    -3.0257625742
   C    16    6     -0.5177572519    13.2887137517     0.5558013182
   H    17    1     -3.9538752845   -16.8156883622    -1.3041632299
   H    18    1     -2.5380958264   -16.1686903448     1.6663155415
   H    19    1     -0.6239306348   -16.9928673922    -0.9589774209
   H    20    1     -3.8245711444   -12.1291681254    -0.5588526747
   H    21    1     -1.9056958930   -12.9445957625    -3.1562828326
   H    22    1      0.0110288312   -12.0170272813     2.2461615653
   H    23    1      1.9383878813   -12.8131659817    -0.3551111828
   H    24    1     -1.3342712616    -8.0309724997    -0.0149950348
   H    25    1      0.6888222261    -8.8015765457    -2.5497557491
   H    26    1      4.4053500839    -8.7766563385     0.4726568846
   H    27    1      2.3679754883    -7.8042998699     2.9226964612
   H    28    1      3.4871511918    -4.8168441660    -1.9372577040
   H    29    1      4.8286044251    -4.2383415487     1.0578032002
   H    30    1     -0.7618583683    -3.6080955164    -0.3694413401
   H    31    1      0.3820859456    -3.3722083073     2.7532784413
   H    32    1      2.2610354436    -0.0820861560    -1.6502009044
   H    33    1      3.1591503187     0.2132524632     1.5462370105
   H    34    1     -1.4553910295     1.1562230734     2.6385170495
   H    35    1     -2.1582699010     1.0839004995    -0.6207834102
   H    36    1      1.4792179150     4.7434518668     2.0442112664
   H    37    1      1.1049706825     4.5737597597    -1.2672910905
   H    38    1     -3.4282145583     5.3945904059     2.2213904922
   H    39    1     -3.2895137044     6.0051833852    -1.0242948134
   H    40    1     -0.6113808653     8.9410906283     3.2473942453
   H    41    1     -3.5077812766     9.7885235178     1.7728344991
   H    42    1      2.8021750458     8.1003779572    -1.3298139444
   H    43    1      3.3029975523     9.9653846852     1.4428549460
   H    44    1      3.4823230495    11.3873452343    -1.6223815229
   H    45    1     -1.0285503243     8.5202434140    -3.7758667303
   H    46    1     -0.4017748990    11.8136557450    -4.1992234393
   H    47    1     -3.3696343359    10.8182466541    -2.9153676146
   H    48    1      0.2535987648    13.3874757458     2.4647826926
   H    49    1     -2.5079208829    13.8166004046     0.5545703735
   H    50    1      0.5428138947    14.5180527175    -0.7130813030
[GTO]
    1  0
  s      6  0
      3047.5248800000         0.0018347371
       457.3695180000         0.0140373228
       103.9486850000         0.0688426223
        29.2101553000         0.2321844432
         9.2866629600         0.4679413484
         3.1639269600         0.3623119853
  s      3  0
         7.8682723500        -0.1193324198
         1.8812885400        -0.1608541517
         0.5442492580         1.1434564378
  p      3  0
         7.8682723500         0.0689990666
         1.8812885400         0.3164239610
         0.5442492580         0.7443082909
  s      1  0
         0.1687144782         1.0000000000
  p      1  0
         0.1687144782         1.0000000000
  s      1  0
         0.0438000000         1.0000000000
  p      1  0
         0.0438000000         1.0000000000

    2  0
  s      6  0
      3047.5248800000         0.0018347371
       457.3695180000         0.0140373228
       103.9486850000         0.0688426223
        29.2101553000         0.2321844432
         9.2866629600         0.4679413484
         3.1639269600         0.3623119853
  s      3  0
         7.8682723500        -0.1193324198
         1.8812885400        -0.1608541517
         0.5442492580         1.1434564378
  p      3  0
         7.8682723500         0.0689990666
         1.8812885400         0.3164239610
         0.5442492580         0.7443082909
  s      1  0
         0.1687144782         1.0000000000
  p      1  0
         0.1687144782         1.0000000000
  s      1  0
         0.0438000000         1.0000000000
  p      1  0
         0.0438000000         1.0000000000

    3  0
  s      6  0
      3047.5248800000         0.0018347371
       457.3695180000         0.0140373228
       103.9486850000         0.0688426223
        29.2101553000         0.2321844432
         9.2866629600         0.4679413484
         3.1639269600         0.3623119853
  s      3  0
         7.8682723500        -0.1193324198
         1.8812885400        -0.1608541517
         0.5442492580         1.1434564378
  p      3  0
         7.8682723500         0.0689990666
         1.8812885400         0.3164239610
         0.5442492580         0.7443082909
  s      1  0
         0.1687144782         1.0000000000
  p      1  0
         0.1687144782         1.0000000000
  s      1  0
         0.0438000000         1.0000000000
  p      1  0
         0.0438000000         1.0000000000

    4  0
  s      6  0
      3047.5248800000         0.0018347371
       457.3695180000         0.0140373228
       103.9486850000         0.0688426223
        29.2101553000         0.2321844432
         9.2866629600         0.4679413484
         3.1639269600         0.3623119853
  s      3  0
         7.8682723500        -0.1193324198
         1.8812885400        -0.1608541517
         0.5442492580         1.1434564378
  p      3  0
         7.8682723500         0.0689990666
         1.8812885400         0.3164239610
         0.5442492580         0.7443082909
  s      1  0
         0.1687144782         1.0000000000
  p      1  0
         0.1687144782         1.0000000000
  s      1  0
         0.0438000000         1.0000000000
  p      1  0
         0.0438000000         1.0000000000

    5  0
  s      6  0
      3047.5248800000         0.0018347371
       457.3695180000         0.0140373228
       103.9486850000         0.0688426223
        29.2101553000         0.2321844432
         9.2866629600         0.4679413484
         3.1639269600         0.3623119853
  s      3  0
         7.8682723500        -0.1193324198
         1.8812885400        -0.1608541517
         0.5442492580         1.1434564378
  p      3  0
         7.8682723500         0.0689990666
         1.8812885400         0.3164239610
         0.5442492580         0.7443082909
  s      1  0
         0.1687144782         1.0000000000
  p      1  0
         0.1687144782         1.0000000000
  s      1  0
         0.0438000000         1.0000000000
  p      1  0
         0.0438000000         1.0000000000

    6  0
  s      6  0
      3047.5248800000         0.0018347371
       457.3695180000         0.0140373228
       103.9486850000         0.0688426223
        29.2101553000         0.2321844432
         9.2866629600         0.4679413484
         3.1639269600         0.3623119853
  s      3  0
         7.8682723500        -0.1193324198
         1.8812885400        -0.1608541517
         0.5442492580         1.1434564378
  p      3  0
         7.8682723500         0.0689990666
         1.8812885400         0.3164239610
         0.5442492580         0.7443082909
  s      1  0
         0.1687144782         1.0000000000
  p      1  0
         0.1687144782         1.0000000000
  s      1  0
         0.0438000000         1.0000000000
  p      1  0
         0.0438000000         1.0000000000

    7  0
  s      6  0
      3047.5248800000         0.0018347371
       457.3695180000         0.0140373228
       103.9486850000         0.0688426223
        29.2101553000         0.2321844432
         9.2866629600         0.4679413484
         3.1639269600         0.3623119853
  s      3  0
         7.8682723500        -0.1193324198
         1.8812885400        -0.1608541517
         0.5442492580         1.1434564378
  p      3  0
         7.8682723500         0.0689990666
         1.8812885400         0.3164239610
         0.5442492580         0.7443082909
  s      1  0
         0.1687144782         1.0000000000
  p      1  0
         0.1687144782         1.0000000000
  s      1  0
         0.0438000000         1.0000000000
  p      1  0
         0.0438000000         1.0000000000

    8  0
  s      6  0
      3047.5248800000         0.0018347371
       457.3695180000         0.0140373228
       103.9486850000         0.0688426223
        29.2101553000         0.2321844432
         9.2866629600         0.4679413484
         3.1639269600         0.3623119853
  s      3  0
         7.8682723500        -0.1193324198
         1.8812885400        -0.1608541517
         0.5442492580         1.1434564378
  p      3  0
         7.8682723500         0.0689990666
         1.8812885400         0.3164239610
         0.5442492580         0.7443082909
  s      1  0
         0.1687144782         1.0000000000
  p      1  0
         0.1687144782         1.0000000000
  s      1  0
         0.0438000000         1.0000000000
  p      1  0
         0.0438000000         1.0000000000

    9  0
  s      6  0
      3047.5248800000         0.0018347371
       457.3695180000         0.0140373228
       103.9486850000         0.0688426223
        29.2101553000         0.2321844432
         9.2866629600         0.4679413484
         3.1639269600         0.3623119853
  s      3  0
         7.8682723500        -0.1193324198
         1.8812885400        -0.1608541517
         0.5442492580         1.1434564378
  p      3  0
         7.8682723500         0.0689990666
         1.8812885400         0.3164239610
         0.5442492580         0.7443082909
  s      1  0
         0.1687144782         1.0000000000
  p      1  0
         0.1687144782         1.0000000000
  s      1  0
         0.0438000000         1.0000000000
  p      1  0
         0.0438000000         1.0000000000

   10  0
  s      6  0
      3047.5248800000         0.0018347371
       457.3695180000         0.0140373228
       103.9486850000         0.0688426223
        29.2101553000         0.2321844432
         9.2866629600         0.4679413484
         3.1639269600         0.3623119853
  s      3  0
         7.8682723500        -0.1193324198
         1.8812885400        -0.1608541517
         0.5442492580         1.1434564378
  p      3  0
         7.8682723500         0.0689990666
         1.8812885400         0.3164239610
         0.5442492580         0.7443082909
  s      1  0
         0.1687144782         1.0000000000
  p      1  0
         0.1687144782         1.0000000000
  s      1  0
         0.0438000000         1.0000000000
  p      1  0
         0.0438000000         1.0000000000

   11  0
  s      6  0
      3047.5248800000         0.0018347371
       457.3695180000         0.0140373228
       103.9486850000         0.0688426223
        29.2101553000         0.2321844432
         9.2866629600         0.4679413484
         3.1639269600         0.3623119853
  s      3  0
         7.8682723500        -0.1193324198
         1.8812885400        -0.1608541517
         0.5442492580         1.1434564378
  p      3  0
         7.8682723500         0.0689990666
         1.8812885400         0.3164239610
         0.5442492580         0.7443082909
  s      1  0
         0.1687144782         1.0000000000
  p      1  0
         0.1687144782         1.0000000000
  s      1  0
         0.0438000000         1.0000000000
  p      1  0
         0.0438000000         1.0000000000

   12  0
  s      6  0
      3047.5248800000         0.0018347371
       457.3695180000         0.0140373228
       103.9486850000         0.0688426223
        29.2101553000         0.2321844432
         9.2866629600         0.4679413484
         3.1639269600         0.3623119853
  s      3  0
         7.8682723500        -0.1193324198
         1.8812885400        -0.1608541517
         0.5442492580         1.1434564378
  p      3  0
         7.8682723500         0.0689990666
         1.8812885400         0.3164239610
         0.5442492580         0.7443082909
  s      1  0
         0.1687144782         1.0000000000
  p      1  0
         0.1687144782         1.0000000000
  s      1  0
         0.0438000000         1.0000000000
  p      1  0
         0.0438000000         1.0000000000

   13  0
  s      6  0
      4173.5114600000         0.0018347722
       627.4579110000         0.0139946270
       142.9020930000         0.0685865518
        40.2343293000         0.2322408730
        12.8202129000         0.4690699481
         4.3904370100         0.3604551991
  s      3  0
        11.6263618600        -0.1149611817
         2.7162798070        -0.1691174786
         0.7722183966         1.1458519471
  p      3  0
        11.6263618600         0.0675797439
         2.7162798070         0.3239072959
         0.7722183966         0.7408951398
  s      1  0
         0.2120314975         1.0000000000
  p      1  0
         0.2120314975         1.0000000000
  s      1  0
         0.0639000000         1.0000000000
  p      1  0
         0.0639000000         1.0000000000

   14  0
  s      6  0
      3047.5248800000         0.0018347371
       457.3695180000         0.0140373228
       103.9486850000         0.0688426223
        29.2101553000         0.2321844432
         9.2866629600         0.4679413484
         3.1639269600         0.3623119853
  s      3  0
         7.8682723500        -0.1193324198
         1.8812885400        -0.1608541517
         0.5442492580         1.1434564378
  p      3  0
         7.8682723500         0.0689990666
         1.8812885400         0.3164239610
         0.5442492580         0.7443082909
  s      1  0
         0.1687144782         1.0000000000
  p      1  0
         0.1687144782         1.0000000000
  s      1  0
         0.0438000000         1.0000000000
  p      1  0
         0.0438000000         1.0000000000

   15  0
  s      6  0
      3047.5248800000         0.0018347371
       457.3695180000         0.0140373228
       103.9486850000         0.0688426223
        29.2101553000         0.2321844432
         9.2866629600         0.4679413484
         3.1639269600         0.3623119853
  s      3  0
         7.8682723500        -0.1193324198
         1.8812885400        -0.1608541517
         0.5442492580         1.1434564378
  p      3  0
         7.8682723500         0.0689990666
         1.8812885400         0.3164239610
         0.5442492580         0.7443082909
  s      1  0
         0.1687144782         1.0000000000
  p      1  0
         0.1687144782         1.0000000000
  s      1  0
         0.0438000000         1.0000000000
  p      1  0
         0.0438000000         1.0000000000

   16  0
  s      6  0
      3047.5248800000         0.0018347371
       457.3695180000         0.0140373228
       103.9486850000         0.0688426223
        29.2101553000         0.2321844432
         9.2866629600         0.4679413484
         3.1639269600         0.3623119853
  s      3  0
         7.8682723500        -0.1193324198
         1.8812885400        -0.1608541517
         0.5442492580         1.1434564378
  p      3  0
         7.8682723500         0.0689990666
         1.8812885400         0.3164239610
         0.5442492580         0.7443082909
  s      1  0
         0.1687144782         1.0000000000
  p      1  0
         0.1687144782         1.0000000000
  s      1  0
         0.0438000000         1.0000000000
  p      1  0
         0.0438000000         1.0000000000

   17  0
  s      3  0
        18.7311369600         0.0334946043
         2.8253943650         0.2347269535
         0.6401216923         0.8137573261
  s      1  0
         0.1612777588         1.0000000000
  s      1  0
         0.0360000000         1.0000000000

   18  0
  s      3  0
        18.7311369600         0.0334946043
         2.8253943650         0.2347269535
         0.6401216923         0.8137573261
  s      1  0
         0.1612777588         1.0000000000
  s      1  0
         0.0360000000         1.0000000000

   19  0
  s      3  0
        18.7311369600         0.0334946043
         2.8253943650         0.2347269535
         0.6401216923         0.8137573261
  s      1  0
         0.1612777588         1.0000000000
  s      1  0
         0.0360000000         1.0000000000

   20  0
  s      3  0
        18.7311369600         0.0334946043
         2.8253943650         0.2347269535
         0.6401216923         0.8137573261
  s      1  0
         0.1612777588         1.0000000000
  s      1  0
         0.0360000000         1.0000000000

   21  0
  s      3  0
        18.7311369600         0.0334946043
         2.8253943650         0.2347269535
         0.6401216923         0.8137573261
  s      1  0
         0.1612777588         1.0000000000
  s      1  0
         0.0360000000         1.0000000000

   22  0
  s      3  0
        18.7311369600         0.0334946043
         2.8253943650         0.2347269535
         0.6401216923         0.8137573261
  s      1  0
         0.1612777588         1.0000000000
  s      1  0
         0.0360000000         1.0000000000

   23  0
  s      3  0
        18.7311369600         0.0334946043
         2.8253943650         0.2347269535
         0.6401216923         0.8137573261
  s      1  0
         0.1612777588         1.0000000000
  s      1  0
         0.0360000000         1.0000000000

   24  0
  s      3  0
        18.7311369600         0.0334946043
         2.8253943650         0.2347269535
         0.6401216923         0.8137573261
  s      1  0
         0.1612777588         1.0000000000
  s      1  0
         0.0360000000         1.0000000000

   25  0
  s      3  0
        18.7311369600         0.0334946043
         2.8253943650         0.2347269535
         0.6401216923         0.8137573261
  s      1  0
         0.1612777588         1.0000000000
  s      1  0
         0.0360000000         1.0000000000

   26  0
  s      3  0
        18.7311369600         0.0334946043
         2.8253943650         0.2347269535
         0.6401216923         0.8137573261
  s      1  0
         0.1612777588         1.0000000000
  s      1  0
         0.0360000000         1.0000000000

   27  0
  s      3  0
        18.7311369600         0.0334946043
         2.8253943650         0.2347269535
         0.6401216923         0.8137573261
  s      1  0
         0.1612777588         1.0000000000
  s      1  0
         0.0360000000         1.0000000000

   28  0
  s      3  0
        18.7311369600         0.0334946043
         2.8253943650         0.2347269535
         0.6401216923         0.8137573261
  s      1  0
         0.1612777588         1.0000000000
  s      1  0
         0.0360000000         1.0000000000

   29  0
  s      3  0
        18.7311369600         0.0334946043
         2.8253943650         0.2347269535
         0.6401216923         0.8137573261
  s      1  0
         0.1612777588         1.0000000000
  s      1  0
         0.0360000000         1.0000000000

   30  0
  s      3  0
        18.7311369600         0.0334946043
         2.8253943650         0.2347269535
         0.6401216923         0.8137573261
  s      1  0
         0.1612777588         1.0000000000
  s      1  0
         0.0360000000         1.0000000000

   31  0
  s      3  0
        18.7311369600         0.0334946043
         2.8253943650         0.2347269535
         0.6401216923         0.8137573261
  s      1  0
         0.1612777588         1.0000000000
  s      1  0
         0.0360000000         1.0000000000

   32  0
  s      3  0
        18.7311369600         0.0334946043
         2.8253943650         0.2347269535
         0.6401216923         0.8137573261
  s      1  0
         0.1612777588         1.0000000000
  s      1  0
         0.0360000000         1.0000000000

   33  0
  s      3  0
        18.7311369600         0.0334946043
         2.8253943650         0.2347269535
         0.6401216923         0.8137573261
  s      1  0
         0.1612777588         1.0000000000
  s      1  0
         0.0360000000         1.0000000000

   34  0
  s      3  0
        18.7311369600         0.0334946043
         2.8253943650         0.2347269535
         0.6401216923         0.8137573261
  s      1  0
         0.1612777588         1.0000000000
  s      1  0
         0.0360000000         1.0000000000

   35  0
  s      3  0
        18.7311369600         0.0334946043
         2.8253943650         0.2347269535
         0.6401216923         0.8137573261
  s      1  0
         0.1612777588         1.0000000000
  s      1  0
         0.0360000000         1.0000000000

   36  0
  s      3  0
        18.7311369600         0.0334946043
         2.8253943650         0.2347269535
         0.6401216923         0.8137573261
  s      1  0
         0.1612777588         1.0000000000
  s      1  0
         0.0360000000         1.0000000000

   37  0
  s      3  0
        18.7311369600         0.0334946043
         2.8253943650         0.2347269535
         0.6401216923         0.8137573261
  s      1  0
         0.1612777588         1.0000000000
  s      1  0
         0.0360000000         1.0000000000

   38  0
  s      3  0
        18.7311369600         0.0334946043
         2.8253943650         0.2347269535
         0.6401216923         0.8137573261
  s      1  0
         0.1612777588         1.0000000000
  s      1  0
         0.0360000000         1.0000000000

   39  0
  s      3  0
        18.7311369600         0.0334946043
         2.8253943650         0.2347269535
         0.6401216923         0.8137573261
  s      1  0
         0.1612777588         1.0000000000
  s      1  0
         0.0360000000         1.0000000000

   40  0
  s      3  0
        18.7311369600         0.0334946043
         2.8253943650         0.2347269535
         0.6401216923         0.8137573261
  s      1  0
         0.1612777588         1.0000000000
  s      1  0
         0.0360000000         1.0000000000

   41  0
  s      3  0
        18.7311369600         0.0334946043
         2.8253943650         0.2347269535
         0.6401216923         0.8137573261
  s      1  0
         0.1612777588         1.0000000000
  s      1  0
         0.0360000000         1.0000000000

   42  0
  s      3  0
        18.7311369600         0.0334946043
         2.8253943650         0.2347269535
         0.6401216923         0.8137573261
  s      1  0
         0.1612777588         1.0000000000
  s      1  0
         0.0360000000         1.0000000000

   43  0
  s      3  0
        18.7311369600         0.0334946043
         2.8253943650         0.2347269535
         0.6401216923         0.8137573261
  s      1  0
         0.1612777588         1.0000000000
  s      1  0
         0.0360000000         1.0000000000

   44  0
  s      3  0
        18.7311369600         0.0334946043
         2.8253943650         0.2347269535
         0.6401216923         0.8137573261
  s      1  0
         0.1612777588         1.0000000000
  s      1  0
         0.0360000000         1.0000000000

   45  0
  s      3  0
        18.7311369600         0.0334946043
         2.8253943650         0.2347269535
         0.6401216923         0.8137573261
  s      1  0
         0.1612777588         1.0000000000
  s      1  0
         0.0360000000         1.0000000000

   46  0
  s      3  0
        18.7311369600         0.0334946043
         2.8253943650         0.2347269535
         0.6401216923         0.8137573261
  s      1  0
         0.1612777588         1.0000000000
  s      1  0
         0.0360000000         1.0000000000

   47  0
  s      3  0
        18.7311369600         0.0334946043
         2.8253943650         0.2347269535
         0.6401216923         0.8137573261
  s      1  0
         0.1612777588         1.0000000000
  s      1  0
         0.0360000000         1.0000000000

   48  0
  s      3  0
        18.7311369600         0.0334946043
         2.8253943650         0.2347269535
         0.6401216923         0.8137573261
  s      1  0
         0.1612777588         1.0000000000
  s      1  0
         0.0360000000         1.0000000000

   49  0
  s      3  0
        18.7311369600         0.0334946043
         2.8253943650         0.2347269535
         0.6401216923         0.8137573261
  s      1  0
         0.1612777588         1.0000000000
  s      1  0
         0.0360000000         1.0000000000

   50  0
  s      3  0
        18.7311369600         0.0334946043
         2.8253943650         0.2347269535
         0.6401216923         0.8137573261
  s      1  0
         0.1612777588         1.0000000000
  s      1  0
         0.0360000000         1.0000000000

[5D]
[9G]
[MO]
Sym= a    
Ene=  -0.14471656046444E+02
Spin= Alpha
Occup=       2.0000000000
     1    0.000001104778
     2    0.000010888359
     3    0.000002156084
     4    0.000003688407
     5   -0.000000325620
     6   -0.000059157526
     7   -0.000015192529
     8   -0.000035050061
     9    0.000003449154
    10   -0.003486933051
    11   -0.000211993824
    12   -0.000884555825
    13    0.000056965328
    14   -0.000000416060
    15   -0.000003095558
    16    0.000000990223
    17    0.000001652455
    18    0.000001098970
    19    0.000033211638
    20   -0.000013658664
    21   -0.000037562291
    22   -0.000009221791
    23    0.001495095476
    24   -0.000264467106
    25   -0.001954195210
    26    0.000425323115
    27    0.000000854251
    28    0.000009506264
    29    0.000002380258
    30    0.000005050786
    31   -0.000001524258
    32   -0.000016722404
    33   -0.000034536744
    34   -0.000017952264
    35    0.000006186191
    36   -0.005625151566
    37   -0.000099986983
    38   -0.001857484853
    39    0.000518898908
    40    0.000002051011
    41    0.000021894526
    42    0.000000396996
    43   -0.000000209315
    44    0.000000674005
    45   -0.000097251507
    46    0.000005054874
    47   -0.000012059862
    48   -0.000013354622
    49   -0.002950007802
    50   -0.003554118131
    51   -0.005130049807
    52   -0.000918370314
    53    0.000003281764
    54    0.000031417380
    55    0.000003177373
    56    0.000005171585
    57   -0.000003381855
    58   -0.000135519040
    59   -0.000028881059
    60   -0.000072602759
    61    0.000086309482
    62    0.013387248288
    63   -0.002376378940
    64    0.000662159591
    65   -0.001948917890
    66    0.000002633229
    67    0.000028914432
    68   -0.000004957717
    69    0.000011575666
    70    0.000006302048
    71   -0.000084620973
    72    0.000041856111
    73   -0.000091096840
    74   -0.000113446647
    75    0.003467034252
    76   -0.002248195206
    77    0.001907194126
    78    0.000455852978
    79    0.000006159303
    80    0.000064236420
    81   -0.000010444550
    82    0.000006958430
    83   -0.000013583627
    84   -0.000224684172
    85    0.000114017951
    86   -0.000046911309
    87    0.000159876896
    88   -0.005101391076
    89   -0.002927743313
    90    0.003722041980
    91   -0.000714216862
    92    0.000002237859
    93    0.000033579881
    94    0.000012131971
    95    0.000026755123
    96    0.000026314333
    97   -0.000077847083
    98   -0.000122945486
    99   -0.000128989545
   100   -0.000277459411
   101   -0.006507886427
   102    0.001388156953
   103   -0.003445041709
   104    0.000785801877
   105    0.000016875307
   106    0.000161557880
   107   -0.000039053708
   108    0.000047609288
   109   -0.000032174804
   110   -0.000855661583
   111    0.000201050302
   112   -0.000594016793
   113    0.000433169183
   114   -0.005769777099
   115    0.000568090616
   116    0.001011480939
   117    0.000255796492
   118    0.000015614477
   119    0.000179196660
   120    0.000038912276
   121    0.000150774214
   122    0.000077011340
   123   -0.000322041415
   124   -0.000154860921
   125   -0.001213354004
   126   -0.000610375522
   127   -0.011162304697
   128    0.003147351567
   129   -0.010313275267
   130   -0.000346609742
   131    0.000001517313
   132   -0.000217199465
   133   -0.000129723665
   134   -0.000146401850
   135    0.000004858147
   136    0.000202711196
   137    0.000356670201
   138   -0.000917183471
   139    0.000557821167
   140   -0.006647334055
   141    0.000387823501
   142   -0.007057348367
   143   -0.001667571106
   144   -0.000094785422
   145   -0.000791838411
   146    0.000259773461
   147    0.000398806256
   148   -0.000313016669
   149    0.008308561936
   150    0.001935608309
   151    0.002497555813
   152   -0.002758687591
   153    0.017666022459
   154   -0.000027672784
   155   -0.011150622737
   156   -0.001435978249
   157    0.995576401742
   158    0.035244744643
   159    0.000015270729
   160    0.000095720403
   161   -0.000012640120
   162   -0.034784043797
   163    0.000187422184
   164   -0.000246282139
   165   -0.000306699320
   166   -0.004668256773
   167   -0.000226207645
   168   -0.003821004453
   169   -0.000269926106
   170   -0.000050333299
   171   -0.000503190942
   172   -0.000545454084
   173    0.000146295872
   174   -0.000022835546
   175    0.007783656690
   176   -0.003751807997
   177    0.000924488386
   178    0.000477000369
   179    0.003397697296
   180    0.001437642502
   181   -0.003033899603
   182   -0.000257953540
   183   -0.000050232241
   184   -0.000516987831
   185    0.000236986909
   186    0.000017273350