 argument  1 = TMA_input.txt



============================== echo of input deck ==============================
echo

start TMA

title "TMA"

# Geometry optimization with 2 basis sets

memory total 2 gb

charge 0

geometry noautoz
   C      -22.06386        6.95118       -0.16877
   N      -22.99938        7.99834        0.23989
   C      -22.35863        8.91779        1.17946
   C      -23.49526        8.72495       -0.92839
   H      -21.72314        6.37895        0.70136
   H      -21.18375        7.35746       -0.68052
   H      -22.55452        6.23790       -0.84044
   H      -22.02327        8.38144        2.07418
   H      -23.07028        9.67886        1.51856
   H      -21.49389        9.42656        0.73796
   H      -24.01204        8.04402       -1.61392
   H      -22.68975        9.22365       -1.47974
   H      -24.22764        9.48251       -0.62775
end

# Geometry optimization using b3lyp/STO-3G level

basis
  * library sto-3g
end

driver
  maxiter 999
end

dft
  xc b3lyp
  mult 1
  maxiter 199
end

title "Molecular optimization: STO-3G basis set"
task dft optimize

# Geometry optimization using b3lyp/6-31++G level

BASIS "ao basis" SPHERICAL PRINT
#BASIS SET: (5s) -> [3s]
H    S
      0.1873113696E+02       0.3349460434E-01
      0.2825394365E+01       0.2347269535E+00
      0.6401216923E+00       0.8137573261E+00
H    S
      0.1612777588E+00       1.0000000
H    S
      0.3600000000E-01       0.1000000000E+01
#BASIS SET: (5s) -> [3s]
He    S
      0.3842163400E+02       0.4013973935E-01
      0.5778030000E+01       0.2612460970E+00
      0.1241774000E+01       0.7931846246E+00
He    S
      0.2979640000E+00       1.0000000
He    S
      0.8600000000E-01       0.1000000000E+01
#BASIS SET: (11s,5p) -> [4s,3p]
Li    S
      0.6424189150E+03       0.2142607810E-02
      0.9679851530E+02       0.1620887150E-01
      0.2209112120E+02       0.7731557250E-01
      0.6201070250E+01       0.2457860520E+00
      0.1935117680E+01       0.4701890040E+00
      0.6367357890E+00       0.3454708450E+00
Li    SP
      0.2324918408E+01      -0.3509174574E-01       0.8941508043E-02
      0.6324303556E+00      -0.1912328431E+00       0.1410094640E+00
      0.7905343475E-01       0.1083987795E+01       0.9453636953E+00
Li    SP
      0.3596197175E-01       0.1000000000E+01       0.1000000000E+01
Li    SP
      0.7400000000E-02       0.1000000000E+01       0.1000000000E+01
#BASIS SET: (11s,5p) -> [4s,3p]
Be    S
      0.1264585690E+04       0.1944757590E-02
      0.1899368060E+03       0.1483505200E-01
      0.4315908900E+02       0.7209054629E-01
      0.1209866270E+02       0.2371541500E+00
      0.3806323220E+01       0.4691986519E+00
      0.1272890300E+01       0.3565202279E+00
Be    SP
      0.3196463098E+01      -0.1126487285E+00       0.5598019980E-01
      0.7478133038E+00      -0.2295064079E+00       0.2615506110E+00
      0.2199663302E+00       0.1186916764E+01       0.7939723389E+00
Be    SP
      0.8230990070E-01       0.1000000000E+01       0.1000000000E+01
Be    SP
      0.2070000000E-01       0.1000000000E+01       0.1000000000E+01
#BASIS SET: (11s,5p) -> [4s,3p]
B    S
      0.2068882250E+04       0.1866274590E-02
      0.3106495700E+03       0.1425148170E-01
      0.7068303300E+02       0.6955161850E-01
      0.1986108030E+02       0.2325729330E+00
      0.6299304840E+01       0.4670787120E+00
      0.2127026970E+01       0.3634314400E+00
B    SP
      0.4727971071E+01      -0.1303937974E+00       0.7459757992E-01
      0.1190337736E+01      -0.1307889514E+00       0.3078466771E+00
      0.3594116829E+00       0.1130944484E+01       0.7434568342E+00
B    SP
      0.1267512469E+00       0.1000000000E+01       0.1000000000E+01
B    SP
      0.3150000000E-01       0.1000000000E+01       0.1000000000E+01
#BASIS SET: (11s,5p) -> [4s,3p]
C    S
      0.3047524880E+04       0.1834737132E-02
      0.4573695180E+03       0.1403732281E-01
      0.1039486850E+03       0.6884262226E-01
      0.2921015530E+02       0.2321844432E+00
      0.9286662960E+01       0.4679413484E+00
      0.3163926960E+01       0.3623119853E+00
C    SP
      0.7868272350E+01      -0.1193324198E+00       0.6899906659E-01
      0.1881288540E+01      -0.1608541517E+00       0.3164239610E+00
      0.5442492580E+00       0.1143456438E+01       0.7443082909E+00
C    SP
      0.1687144782E+00       0.1000000000E+01       0.1000000000E+01
C    SP
      0.4380000000E-01       0.1000000000E+01       0.1000000000E+01
#BASIS SET: (11s,5p) -> [4s,3p]
N    S
      0.4173511460E+04       0.1834772160E-02
      0.6274579110E+03       0.1399462700E-01
      0.1429020930E+03       0.6858655181E-01
      0.4023432930E+02       0.2322408730E+00
      0.1282021290E+02       0.4690699481E+00
      0.4390437010E+01       0.3604551991E+00
N    SP
      0.1162636186E+02      -0.1149611817E+00       0.6757974388E-01
      0.2716279807E+01      -0.1691174786E+00       0.3239072959E+00
      0.7722183966E+00       0.1145851947E+01       0.7408951398E+00
N    SP
      0.2120314975E+00       0.1000000000E+01       0.1000000000E+01
N    SP
      0.6390000000E-01       0.1000000000E+01       0.1000000000E+01
#BASIS SET: (11s,5p) -> [4s,3p]
O    S
      0.5484671660E+04       0.1831074430E-02
      0.8252349460E+03       0.1395017220E-01
      0.1880469580E+03       0.6844507810E-01
      0.5296450000E+02       0.2327143360E+00
      0.1689757040E+02       0.4701928980E+00
      0.5799635340E+01       0.3585208530E+00
O    SP
      0.1553961625E+02      -0.1107775495E+00       0.7087426823E-01
      0.3599933586E+01      -0.1480262627E+00       0.3397528391E+00
      0.1013761750E+01       0.1130767015E+01       0.7271585773E+00
O    SP
      0.2700058226E+00       0.1000000000E+01       0.1000000000E+01
O    SP
      0.8450000000E-01       0.1000000000E+01       0.1000000000E+01
#BASIS SET: (11s,5p) -> [4s,3p]
F    S
      0.7001713090E+04       0.1819616901E-02
      0.1051366090E+04       0.1391607961E-01
      0.2392856900E+03       0.6840532453E-01
      0.6739744530E+02       0.2331857601E+00
      0.2151995730E+02       0.4712674392E+00
      0.7403101300E+01       0.3566185462E+00
F    SP
      0.2084795280E+02      -0.1085069751E+00       0.7162872424E-01
      0.4808308340E+01      -0.1464516581E+00       0.3459121027E+00
      0.1344069860E+01       0.1128688581E+01       0.7224699564E+00
F    SP
      0.3581513930E+00       0.1000000000E+01       0.1000000000E+01
F    SP
      0.1076000000E+00       0.1000000000E+01       0.1000000000E+01
#BASIS SET: (11s,5p) -> [4s,3p]
Ne    S
      0.8425851530E+04       0.1884348050E-02
      0.1268519400E+04       0.1433689940E-01
      0.2896214140E+03       0.7010962331E-01
      0.8185900400E+02       0.2373732660E+00
      0.2625150790E+02       0.4730071261E+00
      0.9094720510E+01       0.3484012410E+00
Ne    SP
      0.2653213100E+02      -0.1071182872E+00       0.7190958851E-01
      0.6101755010E+01      -0.1461638213E+00       0.3495133720E+00
      0.1696271530E+01       0.1127773503E+01       0.7199405121E+00
Ne    SP
      0.4458187000E+00       0.1000000000E+01       0.1000000000E+01
Ne    SP
      0.1300000000E+00       0.1000000000E+01       0.1000000000E+01
#BASIS SET: (17s,11p) -> [5s,4p]
Na    S
      0.9993200000E+04       0.1937659277E-02
      0.1499890000E+04       0.1480699448E-01
      0.3419510000E+03       0.7270547288E-01
      0.9467960000E+02       0.2526289058E+00
      0.2973450000E+02       0.4932418160E+00
      0.1000630000E+02       0.3131688832E+00
Na    SP
      0.1509630000E+03      -0.3542083504E-02       0.5001659710E-02
      0.3558780000E+02      -0.4395884348E-01       0.3551089794E-01
      0.1116830000E+02      -0.1097521086E+00       0.1428249917E+00
      0.3902010000E+01       0.1873981854E+00       0.3386199803E+00
      0.1381770000E+01       0.6466996397E+00       0.4515789738E+00
      0.4663820000E+00       0.3060583027E+00       0.2732709841E+00
Na    SP
      0.4979660000E+00      -0.2485031593E+00      -0.2302250043E-01
      0.8435290000E-01      -0.1317040844E+00       0.9503590176E+00
      0.6663500000E-01       0.1233520791E+01       0.5985790111E-01
Na    SP
      0.2595440000E-01       0.1000000000E+01       0.1000000000E+01
Na    SP
      0.7600000000E-02       0.1000000000E+01       0.1000000000E+01
#BASIS SET: (17s,11p) -> [5s,4p]
Mg    S
      0.1172280000E+05       0.1977829317E-02
      0.1759930000E+04       0.1511399478E-01
      0.4008460000E+03       0.7391077448E-01
      0.1128070000E+03       0.2491909140E+00
      0.3599970000E+02       0.4879278316E+00
      0.1218280000E+02       0.3196618896E+00
Mg    SP
      0.1891800000E+03      -0.3237170471E-02       0.4928129921E-02
      0.4521190000E+02      -0.4100790597E-01       0.3498879944E-01
      0.1435630000E+02      -0.1126000164E+00       0.1407249977E+00
      0.5138860000E+01       0.1486330216E+00       0.3336419947E+00
      0.1906520000E+01       0.6164970898E+00       0.4449399929E+00
      0.7058870000E+00       0.3648290531E+00       0.2692539957E+00
Mg    SP
      0.9293400000E+00      -0.2122908985E+00      -0.2241918123E-01
      0.2690350000E+00      -0.1079854570E+00       0.1922708390E+00
      0.1173790000E+00       0.1175844977E+01       0.8461802916E+00
Mg    SP
      0.4210610000E-01       0.1000000000E+01       0.1000000000E+01
Mg    SP
      0.1460000000E-01       0.1000000000E+01       0.1000000000E+01
#BASIS SET: (17s,11p) -> [5s,4p]
Al    S
      0.1398310000E+05       0.1942669947E-02
      0.2098750000E+04       0.1485989959E-01
      0.4777050000E+03       0.7284939800E-01
      0.1343600000E+03       0.2468299932E+00
      0.4287090000E+02       0.4872579866E+00
      0.1451890000E+02       0.3234959911E+00
Al    SP
      0.2396680000E+03      -0.2926190028E-02       0.4602845582E-02
      0.5744190000E+02      -0.3740830036E-01       0.3319896813E-01
      0.1828590000E+02      -0.1144870011E+00       0.1362818692E+00
      0.6599140000E+01       0.1156350011E+00       0.3304756828E+00
      0.2490490000E+01       0.6125950058E+00       0.4491455689E+00
      0.9445450000E+00       0.3937990037E+00       0.2657037450E+00
Al    SP
      0.1277900000E+01      -0.2276069245E+00      -0.1751260189E-01
      0.3975900000E+00       0.1445835873E-02       0.2445330264E+00
      0.1600950000E+00       0.1092794439E+01       0.8049340867E+00
Al    SP
      0.5565770000E-01       0.1000000000E+01       0.1000000000E+01
Al    SP
      0.3180000000E-01       0.1000000000E+01       0.1000000000E+01
#BASIS SET: (17s,11p) -> [5s,4p]
Si    S
      0.1611590000E+05       0.1959480216E-02
      0.2425580000E+04       0.1492880164E-01
      0.5538670000E+03       0.7284780801E-01
      0.1563400000E+03       0.2461300271E+00
      0.5006830000E+02       0.4859140535E+00
      0.1701780000E+02       0.3250020358E+00
Si    SP
      0.2927180000E+03      -0.2780941415E-02       0.4438264521E-02
      0.6987310000E+02      -0.3571461817E-01       0.3266793328E-01
      0.2233630000E+02      -0.1149850585E+00       0.1347211372E+00
      0.8150390000E+01       0.9356344760E-01       0.3286783348E+00
      0.3134580000E+01       0.6030173068E+00       0.4496404580E+00
      0.1225430000E+01       0.4189592131E+00       0.2613722662E+00
Si    SP
      0.1727380000E+01      -0.2446310042E+00      -0.1779510605E-01
      0.5729220000E+00       0.4315737717E-02       0.2535390863E+00
      0.2221920000E+00       0.1098184508E+01       0.8006692724E+00
Si    SP
      0.7783690000E-01       0.1000000000E+01       0.1000000000E+01
Si    SP
      0.3310000000E-01       0.1000000000E+01       0.1000000000E+01
#BASIS SET: (17s,11p) -> [5s,4p]
P    S
      0.1941330000E+05       0.1851598923E-02
      0.2909420000E+04       0.1420619174E-01
      0.6613640000E+03       0.6999945928E-01
      0.1857590000E+03       0.2400788603E+00
      0.5919430000E+02       0.4847617180E+00
      0.2003100000E+02       0.3351998050E+00
P    SP
      0.3394780000E+03      -0.2782170105E-02       0.4564616191E-02
      0.8101010000E+02      -0.3604990135E-01       0.3369357188E-01
      0.2587800000E+02      -0.1166310044E+00       0.1397548834E+00
      0.9452210000E+01       0.9683280364E-01       0.3393617168E+00
      0.3665660000E+01       0.6144180231E+00       0.4509206237E+00
      0.1467460000E+01       0.4037980152E+00       0.2385858009E+00
P    SP
      0.2156230000E+01      -0.2529241139E+00      -0.1776531273E-01
      0.7489970000E+00       0.3285184468E-01       0.2740581964E+00
      0.2831450000E+00       0.1081254762E+01       0.7854215630E+00
P    SP
      0.9983170000E-01       0.1000000000E+01       0.1000000000E+01
P    SP
      0.3480000000E-01       0.1000000000E+01       0.1000000000E+01
#BASIS SET: (17s,11p) -> [5s,4p]
S    S
      0.2191710000E+05       0.1869240849E-02
      0.3301490000E+04       0.1423030646E-01
      0.7541460000E+03       0.6969623166E-01
      0.2127110000E+03       0.2384871083E+00
      0.6798960000E+02       0.4833072195E+00
      0.2305150000E+02       0.3380741536E+00
S    SP
      0.4237350000E+03      -0.2376770499E-02       0.4061009982E-02
      0.1007100000E+03      -0.3169300665E-01       0.3068129986E-01
      0.3215990000E+02      -0.1133170238E+00       0.1304519994E+00
      0.1180790000E+02       0.5609001177E-01       0.3272049985E+00
      0.4631100000E+01       0.5922551243E+00       0.4528509980E+00
      0.1870250000E+01       0.4550060955E+00       0.2560419989E+00
S    SP
      0.2615840000E+01      -0.2503731142E+00      -0.1451048955E-01
      0.9221670000E+00       0.6695676310E-01       0.3102627765E+00
      0.3412870000E+00       0.1054506269E+01       0.7544824565E+00
S    SP
      0.1171670000E+00       0.1000000000E+01       0.1000000000E+01
S    SP
      0.4050000000E-01       0.1000000000E+01       0.1000000000E+01
#BASIS SET: (17s,11p) -> [5s,4p]
Cl    S
      0.2518010000E+05       0.1832959848E-02
      0.3780350000E+04       0.1403419883E-01
      0.8604740000E+03       0.6909739426E-01
      0.2421450000E+03       0.2374519803E+00
      0.7733490000E+02       0.4830339599E+00
      0.2624700000E+02       0.3398559718E+00
Cl    SP
      0.4917650000E+03      -0.2297391417E-02       0.3989400879E-02
      0.1169840000E+03      -0.3071371894E-01       0.3031770668E-01
      0.3741530000E+02      -0.1125280694E+00       0.1298800286E+00
      0.1378340000E+02       0.4501632776E-01       0.3279510723E+00
      0.5452150000E+01       0.5893533634E+00       0.4535271000E+00
      0.2225880000E+01       0.4652062868E+00       0.2521540556E+00
Cl    SP
      0.3186490000E+01      -0.2518280280E+00      -0.1429931472E-01
      0.1144270000E+01       0.6158925141E-01       0.3235723331E+00
      0.4203770000E+00       0.1060184328E+01       0.7435077653E+00
Cl    SP
      0.1426570000E+00       0.1000000000E+01       0.1000000000E+01
Cl    SP
      0.4830000000E-01       0.1000000000E+01       0.1000000000E+01
#BASIS SET: (17s,11p) -> [5s,4p]
Ar    S
      0.2834830000E+05       0.1825260192E-02
      0.4257620000E+04       0.1396860147E-01
      0.9698570000E+03       0.6870730723E-01
      0.2732630000E+03       0.2362040249E+00
      0.8736950000E+02       0.4822140508E+00
      0.2968670000E+02       0.3420430360E+00
Ar    SP
      0.5758910000E+03      -0.2159720895E-02       0.3806649842E-02
      0.1368160000E+03      -0.2907751206E-01       0.2923049879E-01
      0.4380980000E+02      -0.1108270460E+00       0.1264669948E+00
      0.1620940000E+02       0.2769991148E-01       0.3235099866E+00
      0.6460840000E+01       0.5776132395E+00       0.4548959811E+00
      0.2651140000E+01       0.4886882026E+00       0.2566299894E+00
Ar    SP
      0.3860280000E+01      -0.2555929604E+00      -0.1591969040E-01
      0.1413730000E+01       0.3780674206E-01       0.3246458042E+00
      0.5166460000E+00       0.1080564060E+01       0.7439895512E+00
Ar    SP
      0.1738880000E+00       0.1000000000E+01       0.1000000000E+01
Ar    SP
      0.6000000000E-01       0.1000000000E+01       0.1000000000E+01
end

driver
  maxiter 999
end

dft
  xc b3lyp
  mult 1
  maxiter 199
end

title "Molecular optimization: 6-31++G basis set"
task dft optimize

property
  dipole
  mulliken
  esp
end

title "Property calculation in gas phase"
task dft property
task dft energy

title "Calculation in aqueous phase"
cosmo
  do_cosmo_smd true
  solvent water
end

property
  dipole
  mulliken
end

title "Property calculation in aqueous phase"
task dft property
task dft energy

property
  moldenfile
  molden_norm janpa
end

title "Molden File"
task dft property
================================================================================


                                         
                                         


             Northwest Computational Chemistry Package (NWChem) 7.0.2
             --------------------------------------------------------


                    Environmental Molecular Sciences Laboratory
                       Pacific Northwest National Laboratory
                                Richland, WA 99352

                              Copyright (c) 1994-2020
                       Pacific Northwest National Laboratory
                            Battelle Memorial Institute

             NWChem is an open-source computational chemistry package
                        distributed under the terms of the
                      Educational Community License (ECL) 2.0
             A copy of the license is included with this distribution
                              in the LICENSE.TXT file

                                  ACKNOWLEDGMENT
                                  --------------

            This software and its documentation were developed at the
            EMSL at Pacific Northwest National Laboratory, a multiprogram
            national laboratory, operated for the U.S. Department of Energy
            by Battelle under Contract Number DE-AC05-76RL01830. Support
            for this work was provided by the Department of Energy Office
            of Biological and Environmental Research, Office of Basic
            Energy Sciences, and the Office of Advanced Scientific Computing.


           Job information
           ---------------

    hostname        = NewSitt
    program         = nwchem
    date            = Fri Dec  6 15:31:40 2024

    compiled        = Sat_Apr_09_17:12:10_2022
    source          = /build/nwchem-f1f4gx/nwchem-7.0.2/build-openmpi
    nwchem branch   = 7.0.2
    nwchem revision = N/A
    ga revision     = 5.8.1
    use scalapack   = T
    input           = TMA_input.txt
    prefix          = TMA.
    data base       = ./TMA.db
    status          = startup
    nproc           =        4
    time left       =     -1s



           Memory information
           ------------------

    heap     =   67108860 doubles =    512.0 Mbytes
    stack    =   67108865 doubles =    512.0 Mbytes
    global   =  134217728 doubles =   1024.0 Mbytes (distinct from heap & stack)
    total    =  268435453 doubles =   2048.0 Mbytes
    verify   = yes
    hardfail = no 


           Directory information
           ---------------------

  0 permanent = .
  0 scratch   = .




                                NWChem Input Module
                                -------------------


                                        TMA
                                        ---

 Scaling coordinates for geometry "geometry" by  1.889725989
 (inverse scale =  0.529177249)

 C3  symmetry detected


                             Geometry "geometry" -> ""
                             -------------------------

 Output coordinates in angstroms (scale by  1.889725989 to convert to a.u.)

  No.       Tag          Charge          X              Y              Z
 ---- ---------------- ---------- -------------- -------------- --------------
    1 C                    6.0000    -0.39215185     1.33051602     0.06606788
    2 N                    7.0000    -0.00000000     0.00000000    -0.39727316
    3 C                    6.0000     1.34833660    -0.32564454     0.06606788
    4 C                    6.0000    -0.95618475    -1.00487148     0.06606788
    5 H                    1.0000     0.30009820     2.08980502    -0.31463954
    6 H                    1.0000    -0.41257768     1.39985574     1.15983032
    7 H                    1.0000    -1.38555150     1.59298158    -0.31462737
    8 H                    1.0000     2.07233827     0.40343201    -0.31462737
    9 H                    1.0000     1.65977513    -1.30479517    -0.31463954
   10 H                    1.0000     1.41859947    -0.34262512     1.15983032
   11 H                    1.0000    -1.95987334    -0.78500984    -0.31463954
   12 H                    1.0000    -1.00602179    -1.05723062     1.15983032
   13 H                    1.0000    -0.68678677    -1.99641359    -0.31462737

      Atomic Mass 
      ----------- 

      C                 12.000000
      N                 14.003070
      H                  1.007825


 Effective nuclear repulsion energy (a.u.)     138.1798269751

            Nuclear Dipole moment (a.u.) 
            ----------------------------
        X                 Y               Z
 ---------------- ---------------- ----------------
     0.0000000000    -0.0000000000     0.0000000000

      Symmetry information
      --------------------

 Group name             C3        
 Group number              5
 Group order               3
 No. of unique centers     5

      Symmetry unique atoms

     1    2    5    6    7


            XYZ format geometry
            -------------------
    13
 geometry
 C                    -0.39215185     1.33051602     0.06606788
 N                    -0.00000000     0.00000000    -0.39727316
 C                     1.34833660    -0.32564454     0.06606788
 C                    -0.95618475    -1.00487148     0.06606788
 H                     0.30009820     2.08980502    -0.31463954
 H                    -0.41257768     1.39985574     1.15983032
 H                    -1.38555150     1.59298158    -0.31462737
 H                     2.07233827     0.40343201    -0.31462737
 H                     1.65977513    -1.30479517    -0.31463954
 H                     1.41859947    -0.34262512     1.15983032
 H                    -1.95987334    -0.78500984    -0.31463954
 H                    -1.00602179    -1.05723062     1.15983032
 H                    -0.68678677    -1.99641359    -0.31462737

 ==============================================================================
                                internuclear distances
 ------------------------------------------------------------------------------
       center one      |      center two      | atomic units |  angstroms
 ------------------------------------------------------------------------------
    2 N                |   1 C                |     2.76362  |     1.46244
    3 C                |   2 N                |     2.76362  |     1.46244
    4 C                |   2 N                |     2.76362  |     1.46244
    5 H                |   1 C                |     2.07067  |     1.09575
    6 H                |   1 C                |     2.07142  |     1.09615
    7 H                |   1 C                |     2.07066  |     1.09575
    8 H                |   3 C                |     2.07066  |     1.09575
    9 H                |   3 C                |     2.07067  |     1.09575
   10 H                |   3 C                |     2.07142  |     1.09615
   11 H                |   4 C                |     2.07067  |     1.09575
   12 H                |   4 C                |     2.07142  |     1.09615
   13 H                |   4 C                |     2.07066  |     1.09575
 ------------------------------------------------------------------------------
                         number of included internuclear distances:         12
 ==============================================================================



 ==============================================================================
                                 internuclear angles
 ------------------------------------------------------------------------------
        center 1       |       center 2       |       center 3       |  degrees
 ------------------------------------------------------------------------------
    2 N                |   1 C                |   5 H                |   110.55
    2 N                |   1 C                |   6 H                |   112.25
    2 N                |   1 C                |   7 H                |   110.55
    5 H                |   1 C                |   6 H                |   108.34
    5 H                |   1 C                |   7 H                |   106.62
    6 H                |   1 C                |   7 H                |   108.34
    1 C                |   2 N                |   3 C                |   110.45
    1 C                |   2 N                |   4 C                |   110.45
    3 C                |   2 N                |   4 C                |   110.45
    2 N                |   3 C                |   8 H                |   110.55
    2 N                |   3 C                |   9 H                |   110.55
    2 N                |   3 C                |  10 H                |   112.25
    8 H                |   3 C                |   9 H                |   106.62
    8 H                |   3 C                |  10 H                |   108.34
    9 H                |   3 C                |  10 H                |   108.34
    2 N                |   4 C                |  11 H                |   110.55
    2 N                |   4 C                |  12 H                |   112.25
    2 N                |   4 C                |  13 H                |   110.55
   11 H                |   4 C                |  12 H                |   108.34
   11 H                |   4 C                |  13 H                |   106.62
   12 H                |   4 C                |  13 H                |   108.34
 ------------------------------------------------------------------------------
                            number of included internuclear angles:         21
 ==============================================================================





 Summary of "ao basis" -> "" (cartesian)
 ------------------------------------------------------------------------------
       Tag                 Description            Shells   Functions and Types
 ---------------- ------------------------------  ------  ---------------------
 *                           sto-3g                   on all atoms 


                     Molecular optimization: STO-3G basis set
                     ----------------------------------------


                           NWChem Geometry Optimization
                           ----------------------------




                     Molecular optimization: STO-3G basis set


 maximum gradient threshold         (gmax) =   0.000450
 rms gradient threshold             (grms) =   0.000300
 maximum cartesian step threshold   (xmax) =   0.001800
 rms cartesian step threshold       (xrms) =   0.001200
 fixed trust radius                (trust) =   0.300000
 maximum step size to saddle      (sadstp) =   0.100000
 energy precision                  (eprec) =   5.0D-06
 maximum number of steps          (nptopt) =  999
 initial hessian option           (inhess) =    0
 line search option               (linopt) =    1
 hessian update option            (modupd) =    1
 saddle point option              (modsad) =    0
 initial eigen-mode to follow     (moddir) =    0
 initial variable to follow       (vardir) =    0
 follow first negative mode     (firstneg) =    T
 apply conjugacy                    (opcg) =    F
 source of zmatrix                         =           


          -------------------
          Energy Minimization
          -------------------


 Using diagonal initial Hessian 

          --------
          Step   0
          --------


                         Geometry "geometry" -> "geometry"
                         ---------------------------------

 Output coordinates in angstroms (scale by  1.889725989 to convert to a.u.)

  No.       Tag          Charge          X              Y              Z
 ---- ---------------- ---------- -------------- -------------- --------------
    1 C                    6.0000    -0.39215185     1.33051602     0.06606788
    2 N                    7.0000    -0.00000000     0.00000000    -0.39727316
    3 C                    6.0000     1.34833660    -0.32564454     0.06606788
    4 C                    6.0000    -0.95618475    -1.00487148     0.06606788
    5 H                    1.0000     0.30009820     2.08980502    -0.31463954
    6 H                    1.0000    -0.41257768     1.39985574     1.15983032
    7 H                    1.0000    -1.38555150     1.59298158    -0.31462737
    8 H                    1.0000     2.07233827     0.40343201    -0.31462737
    9 H                    1.0000     1.65977513    -1.30479517    -0.31463954
   10 H                    1.0000     1.41859947    -0.34262512     1.15983032
   11 H                    1.0000    -1.95987334    -0.78500984    -0.31463954
   12 H                    1.0000    -1.00602179    -1.05723062     1.15983032
   13 H                    1.0000    -0.68678677    -1.99641359    -0.31462737

      Atomic Mass 
      ----------- 

      C                 12.000000
      N                 14.003070
      H                  1.007825


 Effective nuclear repulsion energy (a.u.)     138.1798269751

            Nuclear Dipole moment (a.u.) 
            ----------------------------
        X                 Y               Z
 ---------------- ---------------- ----------------
     0.0000000000    -0.0000000000     0.0000000000

      Symmetry information
      --------------------

 Group name             C3        
 Group number              5
 Group order               3
 No. of unique centers     5

      Symmetry unique atoms

     1    2    5    6    7


                                 NWChem DFT Module
                                 -----------------


                     Molecular optimization: STO-3G basis set


                      Basis "ao basis" -> "ao basis" (cartesian)
                      -----
  C (Carbon)
  ----------
            Exponent  Coefficients 
       -------------- ---------------------------------------------------------
  1 S  7.16168370E+01  0.154329
  1 S  1.30450960E+01  0.535328
  1 S  3.53051220E+00  0.444635

  2 S  2.94124940E+00 -0.099967
  2 S  6.83483100E-01  0.399513
  2 S  2.22289900E-01  0.700115

  3 P  2.94124940E+00  0.155916
  3 P  6.83483100E-01  0.607684
  3 P  2.22289900E-01  0.391957

  N (Nitrogen)
  ------------
            Exponent  Coefficients 
       -------------- ---------------------------------------------------------
  1 S  9.91061690E+01  0.154329
  1 S  1.80523120E+01  0.535328
  1 S  4.88566020E+00  0.444635

  2 S  3.78045590E+00 -0.099967
  2 S  8.78496600E-01  0.399513
  2 S  2.85714400E-01  0.700115

  3 P  3.78045590E+00  0.155916
  3 P  8.78496600E-01  0.607684
  3 P  2.85714400E-01  0.391957

  H (Hydrogen)
  ------------
            Exponent  Coefficients 
       -------------- ---------------------------------------------------------
  1 S  3.42525091E+00  0.154329
  1 S  6.23913730E-01  0.535328
  1 S  1.68855400E-01  0.444635



 Summary of "ao basis" -> "ao basis" (cartesian)
 ------------------------------------------------------------------------------
       Tag                 Description            Shells   Functions and Types
 ---------------- ------------------------------  ------  ---------------------
 C                           sto-3g                  3        5   2s1p
 N                           sto-3g                  3        5   2s1p
 H                           sto-3g                  1        1   1s




 Summary of "ao basis" -> "ao basis" (cartesian)
 ------------------------------------------------------------------------------
       Tag                 Description            Shells   Functions and Types
 ---------------- ------------------------------  ------  ---------------------
 C                           sto-3g                  3        5   2s1p
 N                           sto-3g                  3        5   2s1p
 H                           sto-3g                  1        1   1s


      Symmetry analysis of basis
      --------------------------

        a          11
        e+          9
        e-          9

  Caching 1-el integrals 
  Rotation of axis 

            General Information
            -------------------
          SCF calculation type: DFT
          Wavefunction type:  closed shell.
          No. of atoms     :    13
          No. of electrons :    34
           Alpha electrons :    17
            Beta electrons :    17
          Charge           :     0
          Spin multiplicity:     1
          Use of symmetry is: on ; symmetry adaption is: on 
          Maximum number of iterations: 199
          AO basis - number of functions:    29
                     number of shells:    21
          Convergence on energy requested:  1.00D-06
          Convergence on density requested:  1.00D-05
          Convergence on gradient requested:  5.00D-04

              XC Information
              --------------
                         B3LYP Method XC Potential
                     Hartree-Fock (Exact) Exchange  0.200          
                        Slater Exchange Functional  0.800 local    
                    Becke 1988 Exchange Functional  0.720 non-local
              Lee-Yang-Parr Correlation Functional  0.810          
                  VWN I RPA Correlation Functional  0.190 local    

             Grid Information
             ----------------
          Grid used for XC integration:  medium    
          Radial quadrature: Mura-Knowles        
          Angular quadrature: Lebedev. 
          Tag              B.-S. Rad. Rad. Pts. Rad. Cut. Ang. Pts.
          ---              ---------- --------- --------- ---------
          C                   0.70       49           9.0       434
          N                   0.65       49           7.0       434
          H                   0.35       45          10.0       434
          Grid pruning is: on 
          Number of quadrature shells:   233
          Spatial weights used:  Erf1

          Convergence Information
          -----------------------
          Convergence aids based upon iterative change in 
          total energy or number of iterations. 
          Levelshifting, if invoked, occurs when the 
          HOMO/LUMO gap drops below (HL_TOL):  1.00D-02
          DIIS, if invoked, will attempt to extrapolate 
          using up to (NFOCK): 10 stored Fock matrices.

                    Damping( 0%)  Levelshifting(0.5)       DIIS
                  --------------- ------------------- ---------------
          dE  on:    start            ASAP                start   
          dE off:    2 iters        199 iters           199 iters 


      Screening Tolerance Information
      -------------------------------
          Density screening/tol_rho:  1.00D-10
          AO Gaussian exp screening on grid/accAOfunc:  14
          CD Gaussian exp screening on grid/accCDfunc:  20
          XC Gaussian exp screening on grid/accXCfunc:  20
          Schwarz screening/accCoul:  1.00D-08


      Superposition of Atomic Density Guess
      -------------------------------------

 Sum of atomic energies:        -169.35018050

      Non-variational initial energy
      ------------------------------

 Total energy =    -170.250717
 1-e energy   =    -505.126068
 2-e energy   =     196.695524
 HOMO         =      -0.102494
 LUMO         =       0.535655


      Symmetry analysis of molecular orbitals - initial
      -------------------------------------------------

  Numbering of irreducible representations: 

     1 a           2 e+          3 e-      

  Orbital symmetries:

     1 a           2 a           3 e+          4 e+          5 a       
     6 e+          7 e+          8 a           9 a          10 e+      
    11 e+         12 e+         13 e+         14 a          15 e+      
    16 e+         17 a          18 a          19 e+         20 e+      
    21 a          22 e+         23 e+         24 e+         25 e+      
    26 a          27 a       

   Time after variat. SCF:      0.9
   Time prior to 1st pass:      0.9

 #quartets = 8.675D+03 #integrals = 3.146D+04 #direct =  0.0% #cached =100.0%


 Integral file          = ./TMA.aoints.0
 Record size in doubles =  65536        No. of integs per rec  =  43688
 Max. records in memory =      2        Max. records in file   =  79829
 No. of bits per label  =      8        No. of bits per value  =     64


File balance: exchanges=     0  moved=     0  time=   0.0


 Grid_pts file          = ./TMA.gridpts.0
 Record size in doubles =  12289        No. of grid_pts per rec  =   3070
 Max. records in memory =     11        Max. recs in file   =    425727


           Memory utilization after 1st SCF pass: 
           Heap Space remaining (MW):       66.84            66839716
          Stack Space remaining (MW):       67.11            67108356

   convergence    iter        energy       DeltaE   RMS-Dens  Diis-err    time
 ---------------- ----- ----------------- --------- --------- ---------  ------
 d= 0,ls=0.0,diis     1   -172.2894548816 -3.10D+02  2.67D-02  2.72D-01     1.8
 d= 0,ls=0.0,diis     2   -172.3105409423 -2.11D-02  1.31D-02  1.45D-01     1.9
 d= 0,ls=0.0,diis     3   -172.3305961599 -2.01D-02  2.26D-03  4.47D-03     2.0
 d= 0,ls=0.0,diis     4   -172.3312016558 -6.05D-04  5.97D-04  2.50D-04     2.1
 d= 0,ls=0.0,diis     5   -172.3312421801 -4.05D-05  4.88D-05  1.39D-06     2.2
 d= 0,ls=0.0,diis     6   -172.3312424152 -2.35D-07  3.73D-06  4.34D-09     2.3


         Total DFT energy =     -172.331242415170
      One electron energy =     -505.483058519133
           Coulomb energy =      221.550616630619
    Exchange-Corr. energy =      -26.578627501711
 Nuclear repulsion energy =      138.179826975054

 Numeric. integr. density =       33.999985118271

     Total iterative time =      1.4s



                  Occupations of the irreducible representations
                  ----------------------------------------------

                     irrep           alpha         beta
                     --------     --------     --------
                     a                 7.0          7.0
                     e+               10.0         10.0
                     e-                0.0          0.0


                       DFT Final Molecular Orbital Analysis
                       ------------------------------------

 Vector    1  Occ=2.000000D+00  E=-1.412204D+01  Symmetry=a
              MO Center=  7.8D-19,  4.8D-19, -4.0D-01, r^2= 2.0D-02
   Bfn.  Coefficient  Atom+Function         Bfn.  Coefficient  Atom+Function  
  ----- ------------  ---------------      ----- ------------  ---------------
     6      0.992341   2 N  s                 7      0.036113   2 N  s         

 Vector    2  Occ=2.000000D+00  E=-1.003113D+01  Symmetry=e+
              MO Center=  1.9D-01, -6.7D-01,  6.6D-02, r^2= 1.5D+00
   Bfn.  Coefficient  Atom+Function         Bfn.  Coefficient  Atom+Function  
  ----- ------------  ---------------      ----- ------------  ---------------
    11      0.699271   3 C  s                16     -0.701140   4 C  s         
    12      0.032292   3 C  s                17     -0.032378   4 C  s         

 Vector    3  Occ=2.000000D+00  E=-1.003113D+01  Symmetry=e+
              MO Center= -1.9D-01,  6.7D-01,  6.6D-02, r^2= 1.5D+00
   Bfn.  Coefficient  Atom+Function         Bfn.  Coefficient  Atom+Function  
  ----- ------------  ---------------      ----- ------------  ---------------
     1      0.808528   1 C  s                11     -0.405883   3 C  s         
    16     -0.402646   4 C  s                 2      0.037338   1 C  s         

 Vector    4  Occ=2.000000D+00  E=-1.003083D+01  Symmetry=a
              MO Center= -2.9D-12, -1.7D-11,  6.6D-02, r^2= 2.0D+00
   Bfn.  Coefficient  Atom+Function         Bfn.  Coefficient  Atom+Function  
  ----- ------------  ---------------      ----- ------------  ---------------
     1      0.571908   1 C  s                11      0.571908   3 C  s         
    16      0.571908   4 C  s                 2      0.025891   1 C  s         
    12      0.025891   3 C  s                17      0.025891   4 C  s         

 Vector    5  Occ=2.000000D+00  E=-8.717344D-01  Symmetry=a
              MO Center= -5.9D-16, -1.1D-15, -1.1D-01, r^2= 1.2D+00
   Bfn.  Coefficient  Atom+Function         Bfn.  Coefficient  Atom+Function  
  ----- ------------  ---------------      ----- ------------  ---------------
     7      0.598326   2 N  s                 2      0.218664   1 C  s         
    12      0.218664   3 C  s                17      0.218664   4 C  s         
     6     -0.185908   2 N  s                10      0.127345   2 N  pz        
     1     -0.087883   1 C  s                11     -0.087883   3 C  s         
    16     -0.087883   4 C  s                13     -0.075501   3 C  px        

 Vector    6  Occ=2.000000D+00  E=-6.654298D-01  Symmetry=e+
              MO Center=  4.0D-01, -4.6D-01,  3.5D-02, r^2= 2.7D+00
   Bfn.  Coefficient  Atom+Function         Bfn.  Coefficient  Atom+Function  
  ----- ------------  ---------------      ----- ------------  ---------------
    12      0.508272   3 C  s                17     -0.394921   4 C  s         
     8      0.204693   2 N  px               11     -0.176121   3 C  s         
    24      0.148414   8 H  s                16      0.136844   4 C  s         
    25      0.136556   9 H  s                26      0.135384  10 H  s         
    27     -0.123797  11 H  s                 2     -0.113351   1 C  s         

 Vector    7  Occ=2.000000D+00  E=-6.654298D-01  Symmetry=e+
              MO Center= -4.0D-01,  4.6D-01,  3.5D-02, r^2= 2.7D+00
   Bfn.  Coefficient  Atom+Function         Bfn.  Coefficient  Atom+Function  
  ----- ------------  ---------------      ----- ------------  ---------------
     2      0.521459   1 C  s                17     -0.358894   4 C  s         
     9      0.204693   2 N  py                1     -0.180691   1 C  s         
    12     -0.162565   3 C  s                21      0.150315   5 H  s         
    23      0.142047   7 H  s                22      0.138897   6 H  s         
    16      0.124361   4 C  s                29     -0.115012  13 H  s         

 Vector    8  Occ=2.000000D+00  E=-5.582213D-01  Symmetry=a
              MO Center=  6.7D-16,  1.6D-15,  1.3D-01, r^2= 3.6D+00
   Bfn.  Coefficient  Atom+Function         Bfn.  Coefficient  Atom+Function  
  ----- ------------  ---------------      ----- ------------  ---------------
     7      0.478675   2 N  s                 2     -0.258129   1 C  s         
    12     -0.258129   3 C  s                17     -0.258129   4 C  s         
    13     -0.179214   3 C  px                4     -0.176844   1 C  py        
    19      0.133563   4 C  py               22     -0.134224   6 H  s         
    26     -0.134224  10 H  s                28     -0.134224  12 H  s         

 Vector    9  Occ=2.000000D+00  E=-4.265476D-01  Symmetry=a
              MO Center=  1.1D-15, -3.4D-15,  1.6D-01, r^2= 3.0D+00
   Bfn.  Coefficient  Atom+Function         Bfn.  Coefficient  Atom+Function  
  ----- ------------  ---------------      ----- ------------  ---------------
     5      0.290806   1 C  pz               15      0.290806   3 C  pz        
    20      0.290806   4 C  pz               10      0.252604   2 N  pz        
    22      0.219779   6 H  s                26      0.219779  10 H  s         
    28      0.219779  12 H  s                21     -0.124684   5 H  s         
    23     -0.124687   7 H  s                24     -0.124687   8 H  s         

 Vector   10  Occ=2.000000D+00  E=-4.222907D-01  Symmetry=e+
              MO Center=  7.3D-02, -1.1D-01, -5.6D-02, r^2= 3.1D+00
   Bfn.  Coefficient  Atom+Function         Bfn.  Coefficient  Atom+Function  
  ----- ------------  ---------------      ----- ------------  ---------------
     9      0.337985   2 N  py               18     -0.314667   4 C  px        
    14      0.306933   3 C  py               24      0.233556   8 H  s         
     4     -0.225234   1 C  py               27      0.221414  11 H  s         
    25     -0.175229   9 H  s                13      0.169297   3 C  px        
    22     -0.127370   6 H  s                 3      0.123109   1 C  px        

 Vector   11  Occ=2.000000D+00  E=-4.222907D-01  Symmetry=e+
              MO Center= -7.3D-02,  1.1D-01, -5.6D-02, r^2= 3.1D+00
   Bfn.  Coefficient  Atom+Function         Bfn.  Coefficient  Atom+Function  
  ----- ------------  ---------------      ----- ------------  ---------------
     8      0.337985   2 N  px                3      0.333600   1 C  px        
    19     -0.299826   4 C  py               21      0.229002   5 H  s         
    23     -0.205041   7 H  s                13     -0.198568   3 C  px        
    29      0.199491  13 H  s                14      0.184138   3 C  py        
    25     -0.154498   9 H  s                 4      0.137950   1 C  py        

 Vector   12  Occ=2.000000D+00  E=-3.606141D-01  Symmetry=e+
              MO Center= -5.1D-01,  4.4D-01,  3.5D-01, r^2= 2.9D+00
   Bfn.  Coefficient  Atom+Function         Bfn.  Coefficient  Atom+Function  
  ----- ------------  ---------------      ----- ------------  ---------------
     5      0.447935   1 C  pz               22      0.378811   6 H  s         
    20     -0.339092   4 C  pz               28     -0.286763  12 H  s         
    23     -0.184175   7 H  s                27      0.179994  11 H  s         
    21     -0.135324   5 H  s                24      0.122311   8 H  s         
    14      0.119406   3 C  py               15     -0.108843   3 C  pz        

 Vector   13  Occ=2.000000D+00  E=-3.606141D-01  Symmetry=e+
              MO Center=  5.1D-01, -4.4D-01,  3.5D-01, r^2= 2.9D+00
   Bfn.  Coefficient  Atom+Function         Bfn.  Coefficient  Atom+Function  
  ----- ------------  ---------------      ----- ------------  ---------------
    15      0.454390   3 C  pz               26      0.384269  10 H  s         
    20     -0.321456   4 C  pz               28     -0.271850  12 H  s         
    25     -0.182049   9 H  s                29      0.176950  13 H  s         
    24     -0.142051   8 H  s                 5     -0.132934   1 C  pz        
    21      0.129710   5 H  s                 3      0.114378   1 C  px        

 Vector   14  Occ=2.000000D+00  E=-3.337006D-01  Symmetry=a
              MO Center= -3.8D-15, -3.4D-15, -1.2D-01, r^2= 3.9D+00
   Bfn.  Coefficient  Atom+Function         Bfn.  Coefficient  Atom+Function  
  ----- ------------  ---------------      ----- ------------  ---------------
    14     -0.339910   3 C  py                3      0.335417   1 C  px        
    21      0.256929   5 H  s                23     -0.256926   7 H  s         
    24     -0.256926   8 H  s                25      0.256929   9 H  s         
    27      0.256929  11 H  s                29     -0.256926  13 H  s         
    18     -0.253325   4 C  px               19      0.241049   4 C  py        

 Vector   15  Occ=2.000000D+00  E=-3.147260D-01  Symmetry=e+
              MO Center= -1.2D-01, -4.8D-02, -1.5D-01, r^2= 2.9D+00
   Bfn.  Coefficient  Atom+Function         Bfn.  Coefficient  Atom+Function  
  ----- ------------  ---------------      ----- ------------  ---------------
     8      0.359605   2 N  px               13     -0.359275   3 C  px        
    23      0.279140   7 H  s                27      0.268859  11 H  s         
     3     -0.260761   1 C  px               18     -0.252028   4 C  px        
     4      0.239115   1 C  py               25     -0.224455   9 H  s         
     9     -0.219202   2 N  py               29     -0.201808  13 H  s         

 Vector   16  Occ=2.000000D+00  E=-3.147260D-01  Symmetry=e+
              MO Center=  1.2D-01,  4.8D-02, -1.5D-01, r^2= 2.9D+00
   Bfn.  Coefficient  Atom+Function         Bfn.  Coefficient  Atom+Function  
  ----- ------------  ---------------      ----- ------------  ---------------
     9      0.359605   2 N  py               19     -0.329348   4 C  py        
     4     -0.320615   1 C  py               21     -0.284815   5 H  s         
    24     -0.277676   8 H  s                18     -0.234073   4 C  px        
    14     -0.222101   3 C  py                8      0.219202   2 N  px        
    29      0.205810  13 H  s                13     -0.182238   3 C  px        

 Vector   17  Occ=2.000000D+00  E=-1.214241D-01  Symmetry=a
              MO Center= -1.0D-16,  4.9D-17, -3.3D-01, r^2= 1.5D+00
   Bfn.  Coefficient  Atom+Function         Bfn.  Coefficient  Atom+Function  
  ----- ------------  ---------------      ----- ------------  ---------------
    10      0.849763   2 N  pz                7     -0.386828   2 N  s         
    22     -0.235417   6 H  s                26     -0.235417  10 H  s         
    28     -0.235417  12 H  s                21      0.086854   5 H  s         
    23      0.086853   7 H  s                24      0.086853   8 H  s         
    25      0.086854   9 H  s                27      0.086854  11 H  s         

 Vector   18  Occ=0.000000D+00  E= 3.462101D-01  Symmetry=a
              MO Center=  2.5D-16, -6.6D-16,  1.6D-02, r^2= 1.9D+00
   Bfn.  Coefficient  Atom+Function         Bfn.  Coefficient  Atom+Function  
  ----- ------------  ---------------      ----- ------------  ---------------
     7      1.120261   2 N  s                13      0.541558   3 C  px        
     4      0.534402   1 C  py               19     -0.403604   4 C  py        
    10      0.390631   2 N  pz               18     -0.384053   4 C  px        
     5      0.314524   1 C  pz               15      0.314524   3 C  pz        
    20      0.314524   4 C  pz                2     -0.219184   1 C  s         

 Vector   19  Occ=0.000000D+00  E= 3.741220D-01  Symmetry=e+
              MO Center=  2.7D-01,  8.8D-03, -1.4D-01, r^2= 2.8D+00
   Bfn.  Coefficient  Atom+Function         Bfn.  Coefficient  Atom+Function  
  ----- ------------  ---------------      ----- ------------  ---------------
     9      0.571065   2 N  py               14      0.551863   3 C  py        
     4      0.536357   1 C  py               19      0.538080   4 C  py        
    24     -0.518436   8 H  s                25      0.501681   9 H  s         
    21     -0.364271   5 H  s                17      0.306034   4 C  s         
    23      0.265644   7 H  s                 2     -0.261576   1 C  s         

 Vector   20  Occ=0.000000D+00  E= 3.741220D-01  Symmetry=e+
              MO Center= -2.7D-01, -8.8D-03, -1.4D-01, r^2= 2.8D+00
   Bfn.  Coefficient  Atom+Function         Bfn.  Coefficient  Atom+Function  
  ----- ------------  ---------------      ----- ------------  ---------------
     8      0.571065   2 N  px                3      0.547843   1 C  px        
    18      0.546120   4 C  px               13      0.532337   3 C  px        
    27      0.499958  11 H  s                29     -0.452688  13 H  s         
    23      0.445268   7 H  s                21     -0.368979   5 H  s         
    12     -0.327710   3 C  s                 9     -0.222685   2 N  py        

 Vector   21  Occ=0.000000D+00  E= 4.444977D-01  Symmetry=e+
              MO Center=  5.0D-01,  5.3D-02,  3.1D-01, r^2= 3.1D+00
   Bfn.  Coefficient  Atom+Function         Bfn.  Coefficient  Atom+Function  
  ----- ------------  ---------------      ----- ------------  ---------------
    26      0.720745  10 H  s                15     -0.640460   3 C  pz        
    22     -0.468576   6 H  s                21      0.439283   5 H  s         
    13      0.426871   3 C  px                5      0.416389   1 C  pz        
    29      0.388866  13 H  s                24     -0.382508   8 H  s         
     4     -0.343268   1 C  py               19      0.342275   4 C  py        

 Vector   22  Occ=0.000000D+00  E= 4.444977D-01  Symmetry=e+
              MO Center= -5.0D-01, -5.3D-02,  3.1D-01, r^2= 3.1D+00
   Bfn.  Coefficient  Atom+Function         Bfn.  Coefficient  Atom+Function  
  ----- ------------  ---------------      ----- ------------  ---------------
    28      0.686655  12 H  s                20     -0.610172   4 C  pz        
    22     -0.561712   6 H  s                 5      0.499137   1 C  pz        
    23      0.445353   7 H  s                27     -0.417240  11 H  s         
    18     -0.369173   4 C  px               14      0.364726   3 C  py        
    25      0.343620   9 H  s                 3      0.316370   1 C  px        

 Vector   23  Occ=0.000000D+00  E= 4.546216D-01  Symmetry=a
              MO Center= -4.0D-15, -1.2D-14, -2.6D-01, r^2= 4.5D+00
   Bfn.  Coefficient  Atom+Function         Bfn.  Coefficient  Atom+Function  
  ----- ------------  ---------------      ----- ------------  ---------------
     2      0.734062   1 C  s                12      0.734062   3 C  s         
    17      0.734062   4 C  s                21     -0.507415   5 H  s         
    23     -0.507372   7 H  s                24     -0.507372   8 H  s         
    25     -0.507415   9 H  s                27     -0.507415  11 H  s         
    29     -0.507372  13 H  s                13      0.289360   3 C  px        

 Vector   24  Occ=0.000000D+00  E= 4.697441D-01  Symmetry=a
              MO Center=  6.1D-16,  9.4D-16,  6.8D-01, r^2= 2.5D+00
   Bfn.  Coefficient  Atom+Function         Bfn.  Coefficient  Atom+Function  
  ----- ------------  ---------------      ----- ------------  ---------------
    22      0.642863   6 H  s                26      0.642863  10 H  s         
    28      0.642863  12 H  s                 5     -0.509982   1 C  pz        
    15     -0.509982   3 C  pz               20     -0.509982   4 C  pz        
     2     -0.495558   1 C  s                12     -0.495558   3 C  s         
    17     -0.495558   4 C  s                10      0.449165   2 N  pz        

 Vector   25  Occ=0.000000D+00  E= 4.808963D-01  Symmetry=a
              MO Center= -6.1D-15,  4.2D-15, -1.2D-01, r^2= 3.9D+00
   Bfn.  Coefficient  Atom+Function         Bfn.  Coefficient  Atom+Function  
  ----- ------------  ---------------      ----- ------------  ---------------
    14     -0.634672   3 C  py                3      0.626294   1 C  px        
    21     -0.501073   5 H  s                23      0.501121   7 H  s         
    24      0.501121   8 H  s                25     -0.501073   9 H  s         
    27     -0.501073  11 H  s                29      0.501121  13 H  s         
    18     -0.472989   4 C  px               19      0.450102   4 C  py        

 Vector   26  Occ=0.000000D+00  E= 4.936444D-01  Symmetry=e+
              MO Center=  1.0D-01, -6.9D-01,  3.4D-01, r^2= 3.3D+00
   Bfn.  Coefficient  Atom+Function         Bfn.  Coefficient  Atom+Function  
  ----- ------------  ---------------      ----- ------------  ---------------
    17     -0.670918   4 C  s                28      0.656734  12 H  s         
    12      0.618811   3 C  s                26     -0.605725  10 H  s         
    25     -0.471938   9 H  s                29      0.468614  13 H  s         
    19      0.439235   4 C  py               20     -0.387947   4 C  pz        
    13      0.377876   3 C  px               15      0.357811   3 C  pz        

 Vector   27  Occ=0.000000D+00  E= 4.936444D-01  Symmetry=e+
              MO Center= -1.0D-01,  6.9D-01,  3.4D-01, r^2= 3.3D+00
   Bfn.  Coefficient  Atom+Function         Bfn.  Coefficient  Atom+Function  
  ----- ------------  ---------------      ----- ------------  ---------------
     2      0.744626   1 C  s                22     -0.728881   6 H  s         
     4      0.506316   1 C  py               24      0.434147   8 H  s         
     5      0.430564   1 C  pz               12     -0.417438   3 C  s         
    21     -0.413313   5 H  s                26      0.408615  10 H  s         
    27      0.404107  11 H  s                23     -0.377517   7 H  s         

 Vector   28  Occ=0.000000D+00  E= 5.195896D-01  Symmetry=e+
              MO Center=  1.7D-01, -3.2D-02, -2.9D-01, r^2= 3.1D+00
   Bfn.  Coefficient  Atom+Function         Bfn.  Coefficient  Atom+Function  
  ----- ------------  ---------------      ----- ------------  ---------------
    12      0.947451   3 C  s                 8     -0.692431   2 N  px        
    25     -0.535383   9 H  s                24     -0.520686   8 H  s         
    23      0.504865   7 H  s                 2     -0.496269   1 C  s         
    27      0.487071  11 H  s                17     -0.451182   4 C  s         
    15     -0.443176   3 C  pz                3      0.350804   1 C  px        

 Vector   29  Occ=0.000000D+00  E= 5.195896D-01  Symmetry=e+
              MO Center= -1.7D-01,  3.2D-02, -2.9D-01, r^2= 3.1D+00
   Bfn.  Coefficient  Atom+Function         Bfn.  Coefficient  Atom+Function  
  ----- ------------  ---------------      ----- ------------  ---------------
    17     -0.833533   4 C  s                 2      0.807501   1 C  s         
     9     -0.692431   2 N  py               21     -0.590314   5 H  s         
    29      0.592102  13 H  s                14      0.419191   3 C  py        
    20      0.389891   4 C  pz                5     -0.377712   1 C  pz        
    27      0.336996  11 H  s                23     -0.309752   7 H  s         


 center of mass
 --------------
 x =   0.00000000 y =  -0.00000000 z =  -0.05055781

 moments of inertia (a.u.)
 ------------------
         208.264868708830          -0.000000000000           0.000000000000
          -0.000000000000         208.264868708830           0.000000000000
           0.000000000000           0.000000000000         366.601158575969

     Multipole analysis of the density
     ---------------------------------

     L   x y z        total         alpha         beta         nuclear
     -   - - -        -----         -----         ----         -------
     0   0 0 0     -0.000000    -17.000000    -17.000000     34.000000

     1   1 0 0      0.000000      0.000000      0.000000      0.000000
     1   0 1 0     -0.000000      0.000000      0.000000     -0.000000
     1   0 0 1      0.390808      0.195404      0.195404      0.000000

     2   2 0 0    -18.142014    -69.570655    -69.570655    120.999297
     2   1 1 0      0.000000     -0.000000     -0.000000      0.000000
     2   1 0 1     -0.000000     -0.000000     -0.000000     -0.000000
     2   0 2 0    -18.142014    -69.570655    -69.570655    120.999297
     2   0 1 1     -0.000000      0.000000      0.000000     -0.000000
     2   0 0 2    -20.128567    -20.443467    -20.443467     20.758366


 Parallel integral file used       4 records with       0 large values


            General Information
            -------------------
          SCF calculation type: DFT
          Wavefunction type:  closed shell.
          No. of atoms     :    13
          No. of electrons :    34
           Alpha electrons :    17
            Beta electrons :    17
          Charge           :     0
          Spin multiplicity:     1
          Use of symmetry is: on ; symmetry adaption is: on 
          Maximum number of iterations: 199
          AO basis - number of functions:    29
                     number of shells:    21
          Convergence on energy requested:  1.00D-06
          Convergence on density requested:  1.00D-05
          Convergence on gradient requested:  5.00D-04

              XC Information
              --------------
                         B3LYP Method XC Potential
                     Hartree-Fock (Exact) Exchange  0.200          
                        Slater Exchange Functional  0.800 local    
                    Becke 1988 Exchange Functional  0.720 non-local
              Lee-Yang-Parr Correlation Functional  0.810          
                  VWN I RPA Correlation Functional  0.190 local    

             Grid Information
             ----------------
          Grid used for XC integration:  medium    
          Radial quadrature: Mura-Knowles        
          Angular quadrature: Lebedev. 
          Tag              B.-S. Rad. Rad. Pts. Rad. Cut. Ang. Pts.
          ---              ---------- --------- --------- ---------
          C                   0.70       49           9.0       434
          N                   0.65       49           7.0       434
          H                   0.35       45          10.0       434
          Grid pruning is: on 
          Number of quadrature shells:   233
          Spatial weights used:  Erf1

          Convergence Information
          -----------------------
          Convergence aids based upon iterative change in 
          total energy or number of iterations. 
          Levelshifting, if invoked, occurs when the 
          HOMO/LUMO gap drops below (HL_TOL):  1.00D-02
          DIIS, if invoked, will attempt to extrapolate 
          using up to (NFOCK): 10 stored Fock matrices.

                    Damping( 0%)  Levelshifting(0.5)       DIIS
                  --------------- ------------------- ---------------
          dE  on:    start            ASAP                start   
          dE off:    2 iters        199 iters           199 iters 


      Screening Tolerance Information
      -------------------------------
          Density screening/tol_rho:  1.00D-10
          AO Gaussian exp screening on grid/accAOfunc:  14
          CD Gaussian exp screening on grid/accCDfunc:  20
          XC Gaussian exp screening on grid/accXCfunc:  20
          Schwarz screening/accCoul:  1.00D-08



                            NWChem DFT Gradient Module
                            --------------------------


                     Molecular optimization: STO-3G basis set



  charge          =   0.00
  wavefunction    = closed shell

  Rotation of axis 
  Using symmetry


                         DFT ENERGY GRADIENTS

    atom               coordinates                        gradient
                 x          y          z           x          y          z
   1 C      -0.741060   2.514311   0.124850    0.006645  -0.022542  -0.002512
   2 N      -0.000000   0.000000  -0.750737    0.000000   0.000000   0.036886
   3 C       2.547987  -0.615379   0.124850   -0.022844   0.005516  -0.002512
   4 C      -1.806927  -1.898932   0.124850    0.016199   0.017025  -0.002512
   5 H       0.567103   3.949159  -0.594583   -0.006997  -0.002406   0.001656
   6 H      -0.779659   2.645344   2.191761    0.001191  -0.004031  -0.013097
   7 H      -2.618313   3.010299  -0.594560    0.007203   0.001780   0.001657
   8 H       3.916151   0.762376  -0.594560   -0.002061  -0.007128   0.001657
   9 H       3.136520  -2.465705  -0.594583    0.001415   0.007263   0.001656
  10 H       2.680764  -0.647468   2.191761   -0.004087   0.000984  -0.013097
  11 H      -3.703624  -1.483454  -0.594583    0.005582  -0.004857   0.001656
  12 H      -1.901106  -1.997876   2.191761    0.002896   0.003047  -0.013097
  13 H      -1.297839  -3.772675  -0.594560   -0.005143   0.005349   0.001657

                 ----------------------------------------
                 |  Time  |  1-e(secs)   |  2-e(secs)   |
                 ----------------------------------------
                 |  CPU   |       0.00   |       0.04   |
                 ----------------------------------------
                 |  WALL  |       0.00   |       0.04   |
                 ----------------------------------------

@ Step       Energy      Delta E   Gmax     Grms     Xrms     Xmax   Walltime
@ ---- ---------------- -------- -------- -------- -------- -------- --------
@    0    -172.33124242  0.0D+00  0.03689  0.01006  0.00000  0.00000      2.7
                                                                    


                                 NWChem DFT Module
                                 -----------------


                     Molecular optimization: STO-3G basis set




 Summary of "ao basis" -> "ao basis" (cartesian)
 ------------------------------------------------------------------------------
       Tag                 Description            Shells   Functions and Types
 ---------------- ------------------------------  ------  ---------------------
 C                           sto-3g                  3        5   2s1p
 N                           sto-3g                  3        5   2s1p
 H                           sto-3g                  1        1   1s


      Symmetry analysis of basis
      --------------------------

        a          11
        e+          9
        e-          9

  Caching 1-el integrals 
  Rotation of axis 

            General Information
            -------------------
          SCF calculation type: DFT
          Wavefunction type:  closed shell.
          No. of atoms     :    13
          No. of electrons :    34
           Alpha electrons :    17
            Beta electrons :    17
          Charge           :     0
          Spin multiplicity:     1
          Use of symmetry is: on ; symmetry adaption is: on 
          Maximum number of iterations: 199
          AO basis - number of functions:    29
                     number of shells:    21
          Convergence on energy requested:  1.00D-06
          Convergence on density requested:  1.00D-05
          Convergence on gradient requested:  5.00D-04

              XC Information
              --------------
                         B3LYP Method XC Potential
                     Hartree-Fock (Exact) Exchange  0.200          
                        Slater Exchange Functional  0.800 local    
                    Becke 1988 Exchange Functional  0.720 non-local
              Lee-Yang-Parr Correlation Functional  0.810          
                  VWN I RPA Correlation Functional  0.190 local    

             Grid Information
             ----------------
          Grid used for XC integration:  medium    
          Radial quadrature: Mura-Knowles        
          Angular quadrature: Lebedev. 
          Tag              B.-S. Rad. Rad. Pts. Rad. Cut. Ang. Pts.
          ---              ---------- --------- --------- ---------
          C                   0.70       49           9.0       434
          N                   0.65       49           7.0       434
          H                   0.35       45          10.0       434
          Grid pruning is: on 
          Number of quadrature shells:   233
          Spatial weights used:  Erf1

          Convergence Information
          -----------------------
          Convergence aids based upon iterative change in 
          total energy or number of iterations. 
          Levelshifting, if invoked, occurs when the 
          HOMO/LUMO gap drops below (HL_TOL):  1.00D-02
          DIIS, if invoked, will attempt to extrapolate 
          using up to (NFOCK): 10 stored Fock matrices.

                    Damping( 0%)  Levelshifting(0.5)       DIIS
                  --------------- ------------------- ---------------
          dE  on:    start            ASAP                start   
          dE off:    2 iters        199 iters           199 iters 


      Screening Tolerance Information
      -------------------------------
          Density screening/tol_rho:  1.00D-10
          AO Gaussian exp screening on grid/accAOfunc:  14
          CD Gaussian exp screening on grid/accCDfunc:  20
          XC Gaussian exp screening on grid/accXCfunc:  20
          Schwarz screening/accCoul:  1.00D-08


 Loading old vectors from job with title :

Molecular optimization: STO-3G basis set


      Symmetry analysis of molecular orbitals - initial
      -------------------------------------------------

  Numbering of irreducible representations: 

     1 a           2 e+          3 e-      

  Orbital symmetries:

     1 a           2 e+          3 e+          4 a           5 a       
     6 e+          7 e+          8 a           9 a          10 e+      
    11 e+         12 e+         13 e+         14 a          15 e+      
    16 e+         17 a          18 a          19 e+         20 e+      
    21 e+         22 e+         23 a          24 a          25 a       
    26 e+         27 e+      

   Time after variat. SCF:      3.0
   Time prior to 1st pass:      3.0

 #quartets = 8.627D+03 #integrals = 3.139D+04 #direct =  0.0% #cached =100.0%


 Integral file          = ./TMA.aoints.0
 Record size in doubles =  65536        No. of integs per rec  =  43688
 Max. records in memory =      2        Max. records in file   =  79824
 No. of bits per label  =      8        No. of bits per value  =     64


File balance: exchanges=     0  moved=     0  time=   0.0


 Grid_pts file          = ./TMA.gridpts.0
 Record size in doubles =  12289        No. of grid_pts per rec  =   3070
 Max. records in memory =     11        Max. recs in file   =    425687


           Memory utilization after 1st SCF pass: 
           Heap Space remaining (MW):       66.84            66839716
          Stack Space remaining (MW):       67.11            67108356

   convergence    iter        energy       DeltaE   RMS-Dens  Diis-err    time
 ---------------- ----- ----------------- --------- --------- ---------  ------
 d= 0,ls=0.0,diis     1   -172.3328221308 -3.09D+02  9.39D-03  8.73D-03     3.9
 d= 0,ls=0.0,diis     2   -172.3360650146 -3.24D-03  1.55D-03  6.58D-04     4.0
 d= 0,ls=0.0,diis     3   -172.3361091134 -4.41D-05  7.58D-04  4.57D-04     4.1
 d= 0,ls=0.0,diis     4   -172.3361786142 -6.95D-05  8.21D-05  5.02D-06     4.2
 d= 0,ls=0.0,diis     5   -172.3361793202 -7.06D-07  2.26D-05  3.68D-07     4.3
 d= 0,ls=0.0,diis     6   -172.3361793811 -6.08D-08  2.67D-06  3.39D-09     4.4


         Total DFT energy =     -172.336179381058
      One electron energy =     -502.096596579687
           Coulomb energy =      219.888200396817
    Exchange-Corr. energy =      -26.528819319425
 Nuclear repulsion energy =      136.401036121237

 Numeric. integr. density =       33.999985825516

     Total iterative time =      1.4s



                  Occupations of the irreducible representations
                  ----------------------------------------------

                     irrep           alpha         beta
                     --------     --------     --------
                     a                 7.0          7.0
                     e+               10.0         10.0
                     e-                0.0          0.0


                       DFT Final Molecular Orbital Analysis
                       ------------------------------------

 Vector    1  Occ=2.000000D+00  E=-1.412408D+01  Symmetry=a
              MO Center= -3.7D-19,  9.4D-19, -4.7D-01, r^2= 2.0D-02
   Bfn.  Coefficient  Atom+Function         Bfn.  Coefficient  Atom+Function  
  ----- ------------  ---------------      ----- ------------  ---------------
     6      0.992487   2 N  s                 7      0.034825   2 N  s         

 Vector    2  Occ=2.000000D+00  E=-1.002858D+01  Symmetry=e+
              MO Center=  4.0D-01, -5.7D-01,  7.0D-02, r^2= 1.5D+00
   Bfn.  Coefficient  Atom+Function         Bfn.  Coefficient  Atom+Function  
  ----- ------------  ---------------      ----- ------------  ---------------
    11      0.756444   3 C  s                16     -0.625613   4 C  s         
     1     -0.130831   1 C  s                12      0.034412   3 C  s         
    17     -0.028460   4 C  s         

 Vector    3  Occ=2.000000D+00  E=-1.002858D+01  Symmetry=e+
              MO Center= -4.0D-01,  5.7D-01,  7.0D-02, r^2= 1.5D+00
   Bfn.  Coefficient  Atom+Function         Bfn.  Coefficient  Atom+Function  
  ----- ------------  ---------------      ----- ------------  ---------------
     1      0.797931   1 C  s                16     -0.512268   4 C  s         
    11     -0.285663   3 C  s                 2      0.036299   1 C  s         

 Vector    4  Occ=2.000000D+00  E=-1.002827D+01  Symmetry=a
              MO Center= -9.0D-12,  1.1D-11,  7.0D-02, r^2= 2.0D+00
   Bfn.  Coefficient  Atom+Function         Bfn.  Coefficient  Atom+Function  
  ----- ------------  ---------------      ----- ------------  ---------------
     1      0.571947   1 C  s                11      0.571947   3 C  s         
    16      0.571947   4 C  s                 2      0.025479   1 C  s         
    12      0.025479   3 C  s                17      0.025479   4 C  s         

 Vector    5  Occ=2.000000D+00  E=-8.586052D-01  Symmetry=a
              MO Center= -2.6D-18, -3.5D-18, -1.5D-01, r^2= 1.2D+00
   Bfn.  Coefficient  Atom+Function         Bfn.  Coefficient  Atom+Function  
  ----- ------------  ---------------      ----- ------------  ---------------
     7      0.601232   2 N  s                 2      0.221674   1 C  s         
    12      0.221674   3 C  s                17      0.221674   4 C  s         
     6     -0.183988   2 N  s                10      0.134850   2 N  pz        
     1     -0.087314   1 C  s                11     -0.087314   3 C  s         
    16     -0.087314   4 C  s                13     -0.072378   3 C  px        

 Vector    6  Occ=2.000000D+00  E=-6.583122D-01  Symmetry=e+
              MO Center=  5.1D-01,  3.7D-01,  3.6D-02, r^2= 2.8D+00
   Bfn.  Coefficient  Atom+Function         Bfn.  Coefficient  Atom+Function  
  ----- ------------  ---------------      ----- ------------  ---------------
    12      0.488381   3 C  s                 2     -0.440291   1 C  s         
    11     -0.167638   3 C  s                 1      0.151131   1 C  s         
     8      0.149057   2 N  px               25      0.147098   9 H  s         
    23     -0.136507   7 H  s                26      0.131139  10 H  s         
    24      0.130345   8 H  s                 9     -0.118369   2 N  py        

 Vector    7  Occ=2.000000D+00  E=-6.583122D-01  Symmetry=e+
              MO Center= -5.1D-01, -3.7D-01,  3.6D-02, r^2= 2.8D+00
   Bfn.  Coefficient  Atom+Function         Bfn.  Coefficient  Atom+Function  
  ----- ------------  ---------------      ----- ------------  ---------------
    17      0.536169   4 C  s                 2     -0.309731   1 C  s         
    12     -0.226438   3 C  s                16     -0.184041   4 C  s         
    29      0.154067  13 H  s                27      0.150524  11 H  s         
     9     -0.149057   2 N  py               28      0.143971  12 H  s         
     8     -0.118369   2 N  px                1      0.106316   1 C  s         

 Vector    8  Occ=2.000000D+00  E=-5.562045D-01  Symmetry=a
              MO Center=  3.4D-15, -8.7D-16,  1.4D-01, r^2= 3.5D+00
   Bfn.  Coefficient  Atom+Function         Bfn.  Coefficient  Atom+Function  
  ----- ------------  ---------------      ----- ------------  ---------------
     7      0.499204   2 N  s                 2     -0.260501   1 C  s         
    12     -0.260501   3 C  s                17     -0.260501   4 C  s         
    13     -0.168440   3 C  px                4     -0.166217   1 C  py        
    22     -0.140495   6 H  s                26     -0.140495  10 H  s         
    28     -0.140495  12 H  s                 6     -0.127537   2 N  s         

 Vector    9  Occ=2.000000D+00  E=-4.190455D-01  Symmetry=a
              MO Center=  3.2D-16, -5.4D-16,  1.6D-01, r^2= 3.2D+00
   Bfn.  Coefficient  Atom+Function         Bfn.  Coefficient  Atom+Function  
  ----- ------------  ---------------      ----- ------------  ---------------
     5      0.285082   1 C  pz               15      0.285082   3 C  pz        
    20      0.285082   4 C  pz               10      0.235650   2 N  pz        
    22      0.220138   6 H  s                26      0.220138  10 H  s         
    28      0.220138  12 H  s                21     -0.133409   5 H  s         
    23     -0.133389   7 H  s                24     -0.133389   8 H  s         

 Vector   10  Occ=2.000000D+00  E=-4.162147D-01  Symmetry=e+
              MO Center=  1.3D-01,  1.8D-01, -5.3D-02, r^2= 3.1D+00
   Bfn.  Coefficient  Atom+Function         Bfn.  Coefficient  Atom+Function  
  ----- ------------  ---------------      ----- ------------  ---------------
     3      0.352568   1 C  px               14      0.334095   3 C  py        
    23     -0.239894   7 H  s                 8      0.230161   2 N  px        
    25     -0.231277   9 H  s                 9      0.212187   2 N  py        
    21      0.185880   5 H  s                19     -0.176015   4 C  py        
    24      0.163467   8 H  s                28      0.139427  12 H  s         

 Vector   11  Occ=2.000000D+00  E=-4.162147D-01  Symmetry=e+
              MO Center= -1.3D-01, -1.8D-01, -5.3D-02, r^2= 3.1D+00
   Bfn.  Coefficient  Atom+Function         Bfn.  Coefficient  Atom+Function  
  ----- ------------  ---------------      ----- ------------  ---------------
    18      0.283063   4 C  px               19     -0.249507   4 C  py        
    27     -0.240846  11 H  s                 4      0.236457   1 C  py        
    29      0.232881  13 H  s                 9     -0.230161   2 N  py        
    13     -0.227047   3 C  px                8      0.212187   2 N  px        
    24     -0.182628   8 H  s                14     -0.161116   3 C  py        

 Vector   12  Occ=2.000000D+00  E=-3.599031D-01  Symmetry=e+
              MO Center=  2.1D-01,  5.9D-01,  3.4D-01, r^2= 3.0D+00
   Bfn.  Coefficient  Atom+Function         Bfn.  Coefficient  Atom+Function  
  ----- ------------  ---------------      ----- ------------  ---------------
     5      0.435093   1 C  pz               22      0.369742   6 H  s         
    15     -0.340127   3 C  pz               26     -0.289045  10 H  s         
    24      0.189216   8 H  s                21     -0.183075   5 H  s         
    27      0.138308  11 H  s                18     -0.119110   4 C  px        
    23     -0.116232   7 H  s                 9     -0.104113   2 N  py        

 Vector   13  Occ=2.000000D+00  E=-3.599031D-01  Symmetry=e+
              MO Center= -2.1D-01, -5.9D-01,  3.4D-01, r^2= 3.0D+00
   Bfn.  Coefficient  Atom+Function         Bfn.  Coefficient  Atom+Function  
  ----- ------------  ---------------      ----- ------------  ---------------
    20      0.447574   4 C  pz               28      0.380350  12 H  s         
    15     -0.306029   3 C  pz               26     -0.260061  10 H  s         
    25      0.185550   9 H  s                29     -0.176351  13 H  s         
    23      0.151382   7 H  s                 3     -0.148547   1 C  px        
     5     -0.141544   1 C  pz               27     -0.131544  11 H  s         

 Vector   14  Occ=2.000000D+00  E=-3.350070D-01  Symmetry=a
              MO Center=  1.2D-14, -6.4D-15, -1.2D-01, r^2= 4.0D+00
   Bfn.  Coefficient  Atom+Function         Bfn.  Coefficient  Atom+Function  
  ----- ------------  ---------------      ----- ------------  ---------------
    14     -0.338115   3 C  py                3      0.333649   1 C  px        
    21      0.256484   5 H  s                23     -0.256504   7 H  s         
    24     -0.256504   8 H  s                25      0.256484   9 H  s         
    27      0.256484  11 H  s                29     -0.256504  13 H  s         
    18     -0.251983   4 C  px               19      0.239782   4 C  py        

 Vector   15  Occ=2.000000D+00  E=-3.027251D-01  Symmetry=e+
              MO Center=  4.1D-03,  4.6D-03, -1.6D-01, r^2= 2.9D+00
   Bfn.  Coefficient  Atom+Function         Bfn.  Coefficient  Atom+Function  
[...]
    76      2.793187  12 H  s                58     -2.656414   6 H  s         
    25     -1.817727   2 N  py               48      1.368061   4 C  pz        
    52     -1.334085   4 C  pz                9     -1.301444   1 C  pz        
    13      1.268469   1 C  pz                8     -1.227524   1 C  py        

 Vector   61  Occ=0.000000D+00  E= 8.183896D-01  Symmetry=e+
              MO Center=  3.7D-01, -1.1D-01, -2.0D-01, r^2= 6.3D+00
   Bfn.  Coefficient  Atom+Function         Bfn.  Coefficient  Atom+Function  
  ----- ------------  ---------------      ----- ------------  ---------------
    36      3.184582   3 C  s                49     -1.664815   4 C  s         
    64     -1.543437   8 H  s                67     -1.534340   9 H  s         
    10     -1.519767   1 C  s                35      1.394298   3 C  pz        
    33     -1.358520   3 C  px               46     -1.305447   4 C  px        
     7     -1.285205   1 C  px               73      0.965341  11 H  s         

 Vector   62  Occ=0.000000D+00  E= 8.183896D-01  Symmetry=e+
              MO Center= -3.7D-01,  1.1D-01, -2.0D-01, r^2= 6.3D+00
   Bfn.  Coefficient  Atom+Function         Bfn.  Coefficient  Atom+Function  
  ----- ------------  ---------------      ----- ------------  ---------------
    10      2.799801   1 C  s                49     -2.716057   4 C  s         
    55     -1.443192   5 H  s                79      1.412913  13 H  s         
     8     -1.347577   1 C  py               47     -1.327334   4 C  py        
    34     -1.274261   3 C  py               61     -1.260399   7 H  s         
     9      1.224603   1 C  pz               73      1.214363  11 H  s         

 Vector   63  Occ=0.000000D+00  E= 8.730378D-01  Symmetry=a
              MO Center= -9.9D-14,  2.5D-14,  1.3D-01, r^2= 5.7D+00
   Bfn.  Coefficient  Atom+Function         Bfn.  Coefficient  Atom+Function  
  ----- ------------  ---------------      ----- ------------  ---------------
    55      1.916024   5 H  s                61     -1.916260   7 H  s         
    64     -1.916260   8 H  s                67      1.916024   9 H  s         
    73      1.916024  11 H  s                79     -1.916260  13 H  s         
    34     -1.899829   3 C  py                7      1.875002   1 C  px        
    38      1.457686   3 C  py               11     -1.438421   1 C  px        

 Vector   64  Occ=0.000000D+00  E= 9.105255D-01  Symmetry=a
              MO Center= -2.6D-14, -1.7D-14,  8.7D-02, r^2= 4.6D+00
   Bfn.  Coefficient  Atom+Function         Bfn.  Coefficient  Atom+Function  
  ----- ------------  ---------------      ----- ------------  ---------------
    26      1.753393   2 N  pz               23      1.264460   2 N  s         
    22     -1.205132   2 N  pz               57     -1.117576   6 H  s         
    69     -1.117576  10 H  s                75     -1.117576  12 H  s         
    18      0.694730   2 N  pz               58      0.690763   6 H  s         
    70      0.690763  10 H  s                76      0.690763  12 H  s         

 Vector   65  Occ=0.000000D+00  E= 1.010950D+00  Symmetry=e+
              MO Center= -3.8D-01,  3.8D-03, -3.9D-01, r^2= 4.4D+00
   Bfn.  Coefficient  Atom+Function         Bfn.  Coefficient  Atom+Function  
  ----- ------------  ---------------      ----- ------------  ---------------
    36      4.675448   3 C  s                24     -3.751628   2 N  px        
    10     -2.798605   1 C  s                37     -2.134319   3 C  px        
    49     -1.876842   4 C  s                20      1.849088   2 N  px        
    32     -1.603052   3 C  s                60     -1.403218   7 H  s         
    25      1.370921   2 N  py               72     -1.321718  11 H  s         

 Vector   66  Occ=0.000000D+00  E= 1.010950D+00  Symmetry=e+
              MO Center=  3.8D-01, -3.8D-03, -3.9D-01, r^2= 4.4D+00
   Bfn.  Coefficient  Atom+Function         Bfn.  Coefficient  Atom+Function  
  ----- ------------  ---------------      ----- ------------  ---------------
    49      4.315146   4 C  s                10     -3.782966   1 C  s         
    25      3.751628   2 N  py               21     -1.849088   2 N  py        
    12      1.774098   1 C  py               51      1.576606   4 C  py        
    45     -1.479288   4 C  s                54     -1.401994   5 H  s         
    24      1.370921   2 N  px               78      1.317617  13 H  s         

 Vector   67  Occ=0.000000D+00  E= 1.050163D+00  Symmetry=e+
              MO Center=  4.6D-01, -5.9D-01,  2.8D-01, r^2= 5.9D+00
   Bfn.  Coefficient  Atom+Function         Bfn.  Coefficient  Atom+Function  
  ----- ------------  ---------------      ----- ------------  ---------------
    69      1.383661  10 H  s                75     -1.112009  12 H  s         
    78      1.090098  13 H  s                66     -1.064655   9 H  s         
    39     -0.946109   3 C  pz               37      0.894886   3 C  px        
    54      0.766562   5 H  s                52      0.760243   4 C  pz        
    68     -0.701351  10 H  s                64     -0.697431   8 H  s         

 Vector   68  Occ=0.000000D+00  E= 1.050163D+00  Symmetry=e+
              MO Center= -4.6D-01,  5.9D-01,  2.8D-01, r^2= 5.9D+00
   Bfn.  Coefficient  Atom+Function         Bfn.  Coefficient  Atom+Function  
  ----- ------------  ---------------      ----- ------------  ---------------
    57      1.440876   6 H  s                72      1.057254  11 H  s         
    60     -1.011707   7 H  s                13     -0.985163   1 C  pz        
    75     -0.955696  12 H  s                12      0.909161   1 C  py        
    63      0.876398   8 H  s                54     -0.786783   5 H  s         
    56     -0.730402   6 H  s                55     -0.675583   5 H  s         

 Vector   69  Occ=0.000000D+00  E= 1.113010D+00  Symmetry=a
              MO Center=  1.2D-13,  1.6D-13, -3.9D-01, r^2= 5.5D+00
   Bfn.  Coefficient  Atom+Function         Bfn.  Coefficient  Atom+Function  
  ----- ------------  ---------------      ----- ------------  ---------------
    23      4.367287   2 N  s                10     -2.851962   1 C  s         
    36     -2.851962   3 C  s                49     -2.851962   4 C  s         
     6     -2.404759   1 C  s                32     -2.404759   3 C  s         
    45     -2.404759   4 C  s                22      1.425607   2 N  pz        
    19      1.310418   2 N  s                54      1.166794   5 H  s         

 Vector   70  Occ=0.000000D+00  E= 1.147135D+00  Symmetry=a
              MO Center= -3.2D-15,  1.4D-12, -8.0D-02, r^2= 6.9D+00
   Bfn.  Coefficient  Atom+Function         Bfn.  Coefficient  Atom+Function  
  ----- ------------  ---------------      ----- ------------  ---------------
    38     -2.986813   3 C  py               11      2.947103   1 C  px        
    55     -2.343382   5 H  s                61      2.344725   7 H  s         
    64      2.344725   8 H  s                67     -2.343382   9 H  s         
    73     -2.343382  11 H  s                79      2.344725  13 H  s         
    50     -2.226210   4 C  px               51      2.117718   4 C  py        

 Vector   71  Occ=0.000000D+00  E= 1.160294D+00  Symmetry=e+
              MO Center=  1.0D-01, -3.8D-01,  4.9D-01, r^2= 6.1D+00
   Bfn.  Coefficient  Atom+Function         Bfn.  Coefficient  Atom+Function  
  ----- ------------  ---------------      ----- ------------  ---------------
    49     -8.742126   4 C  s                36      8.664768   3 C  s         
    37     -2.930224   3 C  px               45     -2.859054   4 C  s         
    32      2.833447   3 C  s                50     -2.650150   4 C  px        
    11     -1.941548   1 C  px               75      1.863222  12 H  s         
    69     -1.846774  10 H  s                76      1.635771  12 H  s         

 Vector   72  Occ=0.000000D+00  E= 1.160294D+00  Symmetry=e+
              MO Center= -1.0D-01,  3.8D-01,  4.9D-01, r^2= 6.1D+00
   Bfn.  Coefficient  Atom+Function         Bfn.  Coefficient  Atom+Function  
  ----- ------------  ---------------      ----- ------------  ---------------
    10     10.049875   1 C  s                36     -5.091931   3 C  s         
    49     -4.957944   4 C  s                 6      3.286567   1 C  s         
    12     -3.073066   1 C  py               51     -2.364465   4 C  py        
    57     -2.141967   6 H  s                38     -2.084391   3 C  py        
    58     -1.880477   6 H  s                32     -1.665460   3 C  s         

 Vector   73  Occ=0.000000D+00  E= 1.167696D+00  Symmetry=a
              MO Center=  8.6D-13, -2.9D-12,  2.1D-01, r^2= 4.8D+00
   Bfn.  Coefficient  Atom+Function         Bfn.  Coefficient  Atom+Function  
  ----- ------------  ---------------      ----- ------------  ---------------
     6      2.340841   1 C  s                32      2.340841   3 C  s         
    45      2.340841   4 C  s                19     -1.488464   2 N  s         
    23     -1.328926   2 N  s                10      1.309115   1 C  s         
    36      1.309115   3 C  s                49      1.309115   4 C  s         
    57     -1.210271   6 H  s                69     -1.210271  10 H  s         

 Vector   74  Occ=0.000000D+00  E= 1.183450D+00  Symmetry=a
              MO Center= -1.0D-14,  1.7D-13,  2.0D-01, r^2= 4.9D+00
   Bfn.  Coefficient  Atom+Function         Bfn.  Coefficient  Atom+Function  
  ----- ------------  ---------------      ----- ------------  ---------------
    23      8.181836   2 N  s                 6     -2.625754   1 C  s         
    32     -2.625754   3 C  s                45     -2.625754   4 C  s         
    26      1.746553   2 N  pz               57     -1.196801   6 H  s         
    69     -1.196801  10 H  s                75     -1.196801  12 H  s         
     2      0.928047   1 C  s                28      0.928047   3 C  s         

 Vector   75  Occ=0.000000D+00  E= 1.246115D+00  Symmetry=e+
              MO Center= -9.2D-03, -7.9D-03, -2.4D-01, r^2= 5.1D+00
   Bfn.  Coefficient  Atom+Function         Bfn.  Coefficient  Atom+Function  
  ----- ------------  ---------------      ----- ------------  ---------------
    49      7.323512   4 C  s                10     -4.017407   1 C  s         
    36     -3.306105   3 C  s                25      1.774303   2 N  py        
    21     -1.735558   2 N  py               24      1.507799   2 N  px        
    20     -1.474436   2 N  px               75     -1.024347  12 H  s         
    78     -0.919152  13 H  s                72     -0.891587  11 H  s         

 Vector   76  Occ=0.000000D+00  E= 1.246115D+00  Symmetry=e+
              MO Center=  9.2D-03,  7.9D-03, -2.4D-01, r^2= 5.1D+00
   Bfn.  Coefficient  Atom+Function         Bfn.  Coefficient  Atom+Function  
  ----- ------------  ---------------      ----- ------------  ---------------
    36     -6.547683   3 C  s                10      6.137012   1 C  s         
    24      1.774303   2 N  px               20     -1.735558   2 N  px        
    25     -1.507799   2 N  py               21      1.474436   2 N  py        
    37      0.975556   3 C  px               12     -0.927074   1 C  py        
    66      0.917714   9 H  s                67      0.916652   9 H  s         

 Vector   77  Occ=0.000000D+00  E= 1.473088D+00  Symmetry=e+
              MO Center=  6.1D-01, -2.2D-01,  1.7D-01, r^2= 3.5D+00
   Bfn.  Coefficient  Atom+Function         Bfn.  Coefficient  Atom+Function  
  ----- ------------  ---------------      ----- ------------  ---------------
    32      5.271702   3 C  s                36      2.866239   3 C  s         
    45     -2.869370   4 C  s                 6     -2.402332   1 C  s         
    28     -2.025987   3 C  s                24     -1.968589   2 N  px        
    49     -1.558880   4 C  s                10     -1.307359   1 C  s         
    33     -1.143020   3 C  px               41      1.102680   4 C  s         

 Vector   78  Occ=0.000000D+00  E= 1.473088D+00  Symmetry=e+
              MO Center= -6.1D-01,  2.2D-01,  1.7D-01, r^2= 3.5D+00
   Bfn.  Coefficient  Atom+Function         Bfn.  Coefficient  Atom+Function  
  ----- ------------  ---------------      ----- ------------  ---------------
     6      4.700250   1 C  s                45     -4.430606   4 C  s         
    10      2.554844   1 C  s                49     -2.409628   4 C  s         
    25     -1.968589   2 N  py                2     -1.806337   1 C  s         
    41      1.702776   4 C  s                 8     -1.095779   1 C  py        
    47     -0.995845   4 C  py               21     -0.972000   2 N  py        

 Vector   79  Occ=0.000000D+00  E= 1.703891D+00  Symmetry=a
              MO Center= -3.6D-14, -1.4D-14, -8.6D-03, r^2= 2.5D+00
   Bfn.  Coefficient  Atom+Function         Bfn.  Coefficient  Atom+Function  
  ----- ------------  ---------------      ----- ------------  ---------------
    19      5.532637   2 N  s                23     -3.423332   2 N  s         
    15     -2.231401   2 N  s                 6     -1.439334   1 C  s         
    32     -1.439334   3 C  s                45     -1.439334   4 C  s         
    10      1.394651   1 C  s                36      1.394651   3 C  s         
    49      1.394651   4 C  s                22      0.916236   2 N  pz        


 center of mass
 --------------
 x =  -0.00000000 y =  -0.00000000 z =  -0.01519612

 moments of inertia (a.u.)
 ------------------
         212.233718406008          -0.000000000000           0.000000000000
          -0.000000000000         212.233718406008           0.000000000000
           0.000000000000           0.000000000000         378.117703338441

     Multipole analysis of the density
     ---------------------------------

     L   x y z        total         alpha         beta         nuclear
     -   - - -        -----         -----         ----         -------
     0   0 0 0     -0.000000    -17.000000    -17.000000     34.000000

     1   1 0 0      0.000000      0.000000      0.000000     -0.000000
     1   0 1 0     -0.000000     -0.000000     -0.000000     -0.000000
     1   0 0 1      0.421299     -0.270591     -0.270591      0.962480

     2   2 0 0    -19.440904    -71.943520    -71.943520    124.446135
     2   1 1 0     -0.000000     -0.000000     -0.000000      0.000000
     2   1 0 1      0.000000     -0.000000     -0.000000      0.000000
     2   0 2 0    -19.440904    -71.943520    -71.943520    124.446135
     2   0 1 1     -0.000000     -0.000000     -0.000000     -0.000000
     2   0 0 2    -23.095549    -21.600481    -21.600481     20.105412


 Parallel integral file used      40 records with       0 large values

 MOLDEN output will be written to the file ./TMA.molden
  do_norm_janpa  T
  do_norm_nwchem  F
  molden scftype: RHF                  spinref:                     1

 Task  times  cpu:       15.8s     wall:       17.3s


                                NWChem Input Module
                                -------------------


 Summary of allocated global arrays
-----------------------------------
  No active global arrays



                         GA Statistics for process    0
                         ------------------------------

       create   destroy   get      put      acc     scatter   gather  read&inc
calls: 5131     4985     3.84e+05 2.64e+04 2.42e+05   24        0     3.12e+04 
number of processes/call 0.00e+00 0.00e+00 0.00e+00 0.00e+00 0.00e+00
bytes total:             2.25e+08 3.75e+07 1.11e+08 1.35e+03 0.00e+00 2.50e+05
bytes remote:            1.16e+08 1.40e+07 4.48e+07 0.00e+00 0.00e+00 0.00e+00
Max memory consumed for GA by this process: 523640 bytes

MA_summarize_allocated_blocks: starting scan ...
MA_summarize_allocated_blocks: scan completed: 0 heap blocks, 0 stack blocks
MA usage statistics:

	allocation statistics:
					      heap	     stack
					      ----	     -----
	current number of blocks	         0	         0
	maximum number of blocks	        26	        57
	current total bytes		         0	         0
	maximum total bytes		  11475256	  34686504
	maximum total K-bytes		     11476	     34687
	maximum total M-bytes		        12	        35


                                     CITATION
                                     --------
                Please cite the following reference when publishing
                           results obtained with NWChem:

          E. Apr, E. J. Bylaska, W. A. de Jong, N. Govind, K. Kowalski,
       T. P. Straatsma, M. Valiev, H. J. J. van Dam, Y. Alexeev, J. Anchell,
       V. Anisimov, F. W. Aquino, R. Atta-Fynn, J. Autschbach, N. P. Bauman,
     J. C. Becca, D. E. Bernholdt, K. Bhaskaran-Nair, S. Bogatko, P. Borowski,
        J. Boschen, J. Brabec, A. Bruner, E. Caut, Y. Chen, G. N. Chuev,
      C. J. Cramer, J. Daily, M. J. O. Deegan, T. H. Dunning Jr., M. Dupuis,
   K. G. Dyall, G. I. Fann, S. A. Fischer, A. Fonari, H. Frchtl, L. Gagliardi,
      J. Garza, N. Gawande, S. Ghosh, K. Glaesemann, A. W. Gtz, J. Hammond,
       V. Helms, E. D. Hermes, K. Hirao, S. Hirata, M. Jacquelin, L. Jensen,
   B. G. Johnson, H. Jnsson, R. A. Kendall, M. Klemm, R. Kobayashi, V. Konkov,
      S. Krishnamoorthy, M. Krishnan, Z. Lin, R. D. Lins, R. J. Littlefield,
      A. J. Logsdail, K. Lopata, W. Ma, A. V. Marenich, J. Martin del Campo,
   D. Mejia-Rodriguez, J. E. Moore, J. M. Mullin, T. Nakajima, D. R. Nascimento,
    J. A. Nichols, P. J. Nichols, J. Nieplocha, A. Otero-de-la-Roza, B. Palmer,
    A. Panyala, T. Pirojsirikul, B. Peng, R. Peverati, J. Pittner, L. Pollack,
   R. M. Richard, P. Sadayappan, G. C. Schatz, W. A. Shelton, D. W. Silverstein,
   D. M. A. Smith, T. A. Soares, D. Song, M. Swart, H. L. Taylor, G. S. Thomas,
            V. Tipparaju, D. G. Truhlar, K. Tsemekhman, T. Van Voorhis,
     . Vzquez-Mayagoitia, P. Verma, O. Villa, A. Vishnu, K. D. Vogiatzis,
        D. Wang, J. H. Weare, M. J. Williamson, T. L. Windus, K. Woliski,
        A. T. Wong, Q. Wu, C. Yang, Q. Yu, M. Zacharias, Z. Zhang, Y. Zhao,
                                and R. J. Harrison
                        "NWChem: Past, present, and future
                         J. Chem. Phys. 152, 184102 (2020)
                               doi:10.1063/5.0004997

                                      AUTHORS
                                      -------
     E. Apra, E. J. Bylaska, N. Govind, K. Kowalski, M. Valiev, W. A. de Jong,
      T. P. Straatsma, H. J. J. van Dam, D. Wang, T. L. Windus, N. P. Bauman,
       A. Panyala, J. Hammond, J. Autschbach, K. Bhaskaran-Nair, J. Brabec,
    K. Lopata, S. A. Fischer, S. Krishnamoorthy, M. Jacquelin, W. Ma, M. Klemm,
       O. Villa, Y. Chen, V. Anisimov, F. Aquino, S. Hirata, M. T. Hackler,
           Eric Hermes, L. Jensen, J. E. Moore, J. C. Becca, V. Konjkov,
            D. Mejia-Rodriguez, T. Risthaus, M. Malagoli, A. Marenich,
   A. Otero-de-la-Roza, J. Mullin, P. Nichols, R. Peverati, J. Pittner, Y. Zhao,
        P.-D. Fan, A. Fonari, M. J. Williamson, R. J. Harrison, J. R. Rehr,
      M. Dupuis, D. Silverstein, D. M. A. Smith, J. Nieplocha, V. Tipparaju,
      M. Krishnan, B. E. Van Kuiken, A. Vazquez-Mayagoitia, M. Swart, Q. Wu,
   T. Van Voorhis, A. A. Auer, M. Nooijen, L. D. Crosby, E. Brown, G. Cisneros,
     G. I. Fann, H. Fruchtl, J. Garza, K. Hirao, R. A. Kendall, J. A. Nichols,
       K. Tsemekhman, K. Wolinski, J. Anchell, D. E. Bernholdt, P. Borowski,
       T. Clark, D. Clerc, H. Dachsel, M. J. O. Deegan, K. Dyall, D. Elwood,
      E. Glendening, M. Gutowski, A. C. Hess, J. Jaffe, B. G. Johnson, J. Ju,
        R. Kobayashi, R. Kutteh, Z. Lin, R. Littlefield, X. Long, B. Meng,
      T. Nakajima, S. Niu, L. Pollack, M. Rosing, K. Glaesemann, G. Sandrone,
      M. Stave, H. Taylor, G. Thomas, J. H. van Lenthe, A. T. Wong, Z. Zhang.

 Total times  cpu:       75.6s     wall:      108.8s
[0] ARMCI Warning: Freed 1 leaked allocations
