[Molden Format]
[Atoms] AU
   C     1    6     -0.7547539955     2.5606844869     0.1337102921
   N     2    7      0.0000000000    -0.0000000000    -0.6124742504
   C     3    6      2.5949948145    -0.6267061098     0.1337102921
   C     4    6     -1.8402408190    -1.9339783771     0.1337102921
   H     5    1      0.5890757149     3.9331138258    -0.6341701019
   H     6    1     -0.8281391164     2.8080919327     2.2167467902
   H     7    1     -2.6277654252     2.9850959356    -0.6349050540
   H     8    1      3.8990516256     0.7831636457    -0.6349050540
   H     9    1      3.1116386317    -2.4767114468    -0.6341701019
   H    10    1      2.8459485081    -0.6868564537     2.2167467902
   H    11    1     -3.7007143466    -1.4564023790    -0.6341701019
   H    12    1     -2.0178093917    -2.1212354790     2.2167467902
   H    13    1     -1.2712862003    -3.7682595812    -0.6349050540
[GTO]
    1  0
  s      6  0
      3047.5248800000         0.0018347371
       457.3695180000         0.0140373228
       103.9486850000         0.0688426223
        29.2101553000         0.2321844432
         9.2866629600         0.4679413484
         3.1639269600         0.3623119853
  s      3  0
         7.8682723500        -0.1193324198
         1.8812885400        -0.1608541517
         0.5442492580         1.1434564378
  p      3  0
         7.8682723500         0.0689990666
         1.8812885400         0.3164239610
         0.5442492580         0.7443082909
  s      1  0
         0.1687144782         1.0000000000
  p      1  0
         0.1687144782         1.0000000000
  s      1  0
         0.0438000000         1.0000000000
  p      1  0
         0.0438000000         1.0000000000

    2  0
  s      6  0
      4173.5114600000         0.0018347722
       627.4579110000         0.0139946270
       142.9020930000         0.0685865518
        40.2343293000         0.2322408730
        12.8202129000         0.4690699481
         4.3904370100         0.3604551991
  s      3  0
        11.6263618600        -0.1149611817
         2.7162798070        -0.1691174786
         0.7722183966         1.1458519471
  p      3  0
        11.6263618600         0.0675797439
         2.7162798070         0.3239072959
         0.7722183966         0.7408951398
  s      1  0
         0.2120314975         1.0000000000
  p      1  0
         0.2120314975         1.0000000000
  s      1  0
         0.0639000000         1.0000000000
  p      1  0
         0.0639000000         1.0000000000

    3  0
  s      6  0
      3047.5248800000         0.0018347371
       457.3695180000         0.0140373228
       103.9486850000         0.0688426223
        29.2101553000         0.2321844432
         9.2866629600         0.4679413484
         3.1639269600         0.3623119853
  s      3  0
         7.8682723500        -0.1193324198
         1.8812885400        -0.1608541517
         0.5442492580         1.1434564378
  p      3  0
         7.8682723500         0.0689990666
         1.8812885400         0.3164239610
         0.5442492580         0.7443082909
  s      1  0
         0.1687144782         1.0000000000
  p      1  0
         0.1687144782         1.0000000000
  s      1  0
         0.0438000000         1.0000000000
  p      1  0
         0.0438000000         1.0000000000

    4  0
  s      6  0
      3047.5248800000         0.0018347371
       457.3695180000         0.0140373228
       103.9486850000         0.0688426223
        29.2101553000         0.2321844432
         9.2866629600         0.4679413484
         3.1639269600         0.3623119853
  s      3  0
         7.8682723500        -0.1193324198
         1.8812885400        -0.1608541517
         0.5442492580         1.1434564378
  p      3  0
         7.8682723500         0.0689990666
         1.8812885400         0.3164239610
         0.5442492580         0.7443082909
  s      1  0
         0.1687144782         1.0000000000
  p      1  0
         0.1687144782         1.0000000000
  s      1  0
         0.0438000000         1.0000000000
  p      1  0
         0.0438000000         1.0000000000

    5  0
  s      3  0
        18.7311369600         0.0334946043
         2.8253943650         0.2347269535
         0.6401216923         0.8137573261
  s      1  0
         0.1612777588         1.0000000000
  s      1  0
         0.0360000000         1.0000000000

    6  0
  s      3  0
        18.7311369600         0.0334946043
         2.8253943650         0.2347269535
         0.6401216923         0.8137573261
  s      1  0
         0.1612777588         1.0000000000
  s      1  0
         0.0360000000         1.0000000000

    7  0
  s      3  0
        18.7311369600         0.0334946043
         2.8253943650         0.2347269535
         0.6401216923         0.8137573261
  s      1  0
         0.1612777588         1.0000000000
  s      1  0
         0.0360000000         1.0000000000

    8  0
  s      3  0
        18.7311369600         0.0334946043
         2.8253943650         0.2347269535
         0.6401216923         0.8137573261
  s      1  0
         0.1612777588         1.0000000000
  s      1  0
         0.0360000000         1.0000000000

    9  0
  s      3  0
        18.7311369600         0.0334946043
         2.8253943650         0.2347269535
         0.6401216923         0.8137573261
  s      1  0
         0.1612777588         1.0000000000
  s      1  0
         0.0360000000         1.0000000000

   10  0
  s      3  0
        18.7311369600         0.0334946043
         2.8253943650         0.2347269535
         0.6401216923         0.8137573261
  s      1  0
         0.1612777588         1.0000000000
  s      1  0
         0.0360000000         1.0000000000

   11  0
  s      3  0
        18.7311369600         0.0334946043
         2.8253943650         0.2347269535
         0.6401216923         0.8137573261
  s      1  0
         0.1612777588         1.0000000000
  s      1  0
         0.0360000000         1.0000000000

   12  0
  s      3  0
        18.7311369600         0.0334946043
         2.8253943650         0.2347269535
         0.6401216923         0.8137573261
  s      1  0
         0.1612777588         1.0000000000
  s      1  0
         0.0360000000         1.0000000000

   13  0
  s      3  0
        18.7311369600         0.0334946043
         2.8253943650         0.2347269535
         0.6401216923         0.8137573261
  s      1  0
         0.1612777588         1.0000000000
  s      1  0
         0.0360000000         1.0000000000

[5D]
[9G]
[MO]
Sym= a    
Ene=  -0.14336194135278E+02
Spin= Alpha
Occup=       2.0000000000
     1    0.000040096794
     2   -0.000254430378
     3    0.000112960975
     4   -0.000383368741
     5    0.000008550055
     6    0.006101655034
     7    0.000733840352
     8   -0.002488722528
     9   -0.000322212418
    10   -0.003231319787
    11   -0.000599134209
    12    0.002036765083
    13   -0.000210604489
    14    0.995435354575
    15    0.033825425884
    16    0.000000000000
    17   -0.000000000000
    18    0.001749646811
    19   -0.029805050584
    20   -0.000000000000
    21   -0.000000000000
    22   -0.004041122471
    23    0.016054599165
    24   -0.000000000000
    25   -0.000000000000
    26    0.001616360909
    27    0.000040096794
    28   -0.000254430378
    29   -0.000388487556
    30    0.000093857297
    31    0.000008550055
    32    0.006101655034
    33   -0.002522217108
    34    0.000608836877
    35   -0.000322212418
    36   -0.003231319787
    37    0.002063457408
    38   -0.000499517096
    39   -0.000210604489
    40    0.000040096794
    41   -0.000254430378
    42    0.000275526581
    43    0.000289511444
    44    0.000008550055
    45    0.006101655034
    46    0.001788376757
    47    0.001879885651
    48   -0.000322212418
    49   -0.003231319787
    50   -0.001464323199
    51   -0.001537247987
    52   -0.000210604489
    53   -0.000215233742
    54   -0.001062546788
    55   -0.000224692064
    56   -0.000411389138
    57   -0.000788367760
    58    0.000953505797
    59   -0.000215259178
    60   -0.001061832712
    61   -0.000222841138
    62   -0.000215259178
    63   -0.001061832712
    64   -0.000222841138
    65   -0.000215233742
    66   -0.001062546788
    67   -0.000224692064
    68   -0.000411389138
    69   -0.000788367760
    70    0.000953505797
    71   -0.000215233742
    72   -0.001062546788
    73   -0.000224692064
    74   -0.000411389138
    75   -0.000788367760
    76    0.000953505797
    77   -0.000215259178
    78   -0.001061832712
    79   -0.000222841138
Sym= e+   
Ene=  -0.10200369611323E+02
Spin= Alpha
Occup=       2.0000000000
     1   -0.465204036371
     2   -0.018396294793
     3   -0.000330924803
     4    0.000292261174
     5   -0.000001363932
     6    0.018488774507
     7    0.002476197673
     8   -0.001166900689
     9    0.000247667420
    10    0.017485206828
    11    0.002601199591
    12   -0.004558340110
    13   -0.000392603817
    14   -0.000000000000
    15   -0.000000000000
    16   -0.000349018549
    17    0.000116638635
    18    0.000000000000
    19   -0.000000000001
    20    0.002693085101
    21   -0.000899857218
    22   -0.000000000000
    23   -0.000000000008
    24    0.011946584866
    25   -0.003994924357
    26   -0.000000000001
    27    0.809871858801
    28    0.032026062370
    29   -0.000626840819
    30    0.000176674402
    31    0.000002230402
    32   -0.032187854692
    33    0.003028096674
    34   -0.000951881422
    35   -0.000429465378
    36   -0.030435674688
    37    0.008610565880
    38   -0.002211047269
    39    0.000688097242
    40   -0.344667822823
    41   -0.013629767591
    42   -0.000378781730
    43   -0.000021802999
    44   -0.000000866470
    45    0.013699080198
    46    0.002565935027
    47   -0.000581432500
    48    0.000181797958
    49    0.012950467867
    50    0.003573067506
    51    0.001819570179
    52   -0.000295493425
    53    0.000156157385
    54   -0.005214226335
    55    0.000212983316
    56    0.000172909801
    57   -0.004233777919
    58   -0.000803137359
    59    0.000306163947
    60   -0.000985070223
    61   -0.000130478860
    62   -0.000394813441
    63    0.005619193706
    64   -0.000085019272
    65   -0.000410302950
    66    0.005175781444
    67   -0.000051322068
    68   -0.000300700986
    69    0.007368815402
    70    0.001392036518
    71    0.000254145566
    72    0.000038444889
    73   -0.000161661248
    74    0.000127791185
    75   -0.003135037484
    76   -0.000588899160
    77    0.000088649494
    78   -0.004634123486
    79    0.000215498132
Sym= e+   
Ene=  -0.10200369611323E+02
Spin= Alpha
Occup=       2.0000000000
     1   -0.666573796134
     2   -0.026359405724
     3    0.000005827210
     4    0.000560106766
     5   -0.000001787980
     6    0.026492834217
     7   -0.000633242385
     8   -0.002903955243
     9    0.000352913051
    10    0.025049001086
    11    0.001258461976
    12   -0.007255355728
    13   -0.000567876336
    14   -0.000000000000
    15   -0.000000000000
    16    0.000116638635
    17    0.000349018549
    18    0.000000000000
    19   -0.000000000001
    20   -0.000899857218
    21   -0.002693085101
    22   -0.000000000000
    23   -0.000000000009
    24   -0.003994924357
    25   -0.011946584866
    26   -0.000000000001
    27   -0.069591615497
    28   -0.002751955769
    29    0.000121413983
    30    0.000264190749
    31   -0.000000287210
    32    0.002765331304
    33   -0.000848261652
    34   -0.002352056242
    35    0.000038029751
    36    0.002618132763
    37   -0.001088830865
    38   -0.001245989437
    39   -0.000056066711
    40    0.736165411157
    41    0.029111361475
    42    0.000319891384
    43    0.000512249838
    44    0.000002075189
    45   -0.029258165505
    46   -0.001218710573
    47   -0.002814217889
    48   -0.000390942803
    49   -0.027667133841
    50   -0.005119448311
    51   -0.006283487811
    52    0.000623943048
    53    0.000383619530
    54   -0.002966042644
    55   -0.000063704355
    56    0.000247390071
    57   -0.006064402292
    58   -0.001143693748
    59    0.000279127456
    60   -0.005919755442
    61    0.000173503804
    62    0.000125582028
    63    0.002106781883
    64   -0.000199749909
    65   -0.000056573502
    66   -0.003032631146
    67    0.000216301139
    68    0.000026049245
    69   -0.000634358086
    70   -0.000123690483
    71   -0.000327046027
    72    0.005998673788
    73   -0.000152596784
    74   -0.000273439315
    75    0.006698760376
    76    0.001267384229
    77   -0.000404709484
    78    0.003812973556
    79    0.000026246105
Sym= a    
Ene=  -0.10200346847605E+02
Spin= Alpha
Occup=       2.0000000000
     1    0.574616955809
     2    0.021398959721
     3    0.000115819576
     4   -0.000392683387
     5   -0.000194744773
     6   -0.019548780172
     7   -0.000335356080
     8    0.001135800950
     9    0.001106311501
    10   -0.009248039045
    11   -0.000768603337
    12    0.002607034650
    13   -0.000569493669
    14    0.000135678628
    15    0.000486976031
    16   -0.000000000000
    17    0.000000000000
    18   -0.000164421152
    19    0.003111550061
    20    0.000000000000
    21   -0.000000000001
    22    0.000492225421
    23    0.033508669930
    24    0.000000000002
    25   -0.000000000004
    26    0.005353455547
    27    0.574616956264
    28    0.021398959739
    29   -0.000397983577
    30    0.000096038999
    31   -0.000194744773
    32   -0.019548780190
    33    0.001151310518
    34   -0.000277473591
    35    0.001106311501
    36   -0.009248039062
    37    0.002642059909
    38   -0.000637887311
    39   -0.000569493669
    40    0.574616956222
    41    0.021398959738
    42    0.000282164001
    43    0.000296644389
    44   -0.000194744773
    45   -0.019548780188
    46   -0.000815954437
    47   -0.000858327361
    48    0.001106311501
    49   -0.009248039061
    50   -0.001873456570
    51   -0.001969147344
    52   -0.000569493669
    53   -0.000440071829
    54    0.003319343434
    55    0.000130620494
    56   -0.000541685702
    57    0.002108047952
    58    0.001902542233
    59   -0.000440009539
    60    0.003318480086
    61    0.000130655416
    62   -0.000440009539
    63    0.003318480090
    64    0.000130655416
    65   -0.000440071829
    66    0.003319343436
    67    0.000130620494
    68   -0.000541685703
    69    0.002108047956
    70    0.001902542233
    71   -0.000440071829
    72    0.003319343438
    73    0.000130620493
    74   -0.000541685703
    75    0.002108047956
    76    0.001902542233
    77   -0.000440009539
    78    0.003318480088
    79    0.000130655416
Sym= a    
Ene=  -0.92450781376120E+00
Spin= Alpha
Occup=       2.0000000000
     1   -0.076227753480
     2    0.146085893783
     3    0.023038764759
     4   -0.078163911762
     5   -0.015901766672
     6    0.074364377591
     7   -0.003627189652
     8    0.012290312741
     9   -0.000394879512
    10    0.016829989466
    11    0.003743013606
    12   -0.012749448572
    13    0.003371816967
    14   -0.173803579316
    15    0.352790358572
    16    0.000000000000
    17   -0.000000000000
    18    0.081548206634
    19    0.394771009889
    20   -0.000000000000
    21    0.000000000000
    22    0.052450099300
    23   -0.050290099632
    24   -0.000000000000
    25    0.000000000000
    26   -0.003672865682
    27   -0.076227753480
    28    0.146085893783
    29   -0.079211315625
    30    0.019129800328
    31   -0.015901766672
    32    0.074364377591
    33    0.012457317880
    34   -0.003003917988
    35   -0.000394879512
    36    0.016829989466
    37   -0.012912853151
    38    0.003133179416
    39    0.003371816967
    40   -0.076227753480
    41    0.146085893783
    42    0.056172550866
    43    0.059034111434
    44   -0.015901766672
    45    0.074364377591
    46   -0.008830128228
    47   -0.009286394753
    48   -0.000394879512
    49    0.016829989466
    50    0.009169839544
    51    0.009616269156
    52    0.003371816967
    53    0.029331696795
    54   -0.001456604995
    55    0.003633107380
    56    0.030971713526
    57   -0.004843331114
    58   -0.007961076500
    59    0.029331081576
    60   -0.001464335450
    61    0.003608210597
    62    0.029331081576
    63   -0.001464335450
    64    0.003608210597
    65    0.029331696795
    66   -0.001456604995
    67    0.003633107380
    68    0.030971713526
    69   -0.004843331114
    70   -0.007961076500
    71    0.029331696795
    72   -0.001456604995
    73    0.003633107380
    74    0.030971713526
    75   -0.004843331114
    76   -0.007961076500
    77    0.029331081576
    78   -0.001464335450
    79    0.003608210597
Sym= e+   
Ene=  -0.71135090975451E+00
Spin= Alpha
Occup=       2.0000000000
     1    0.070975772605
     2   -0.137836552520
     3    0.036464208499
     4    0.012733834169
     5    0.006453035257
     6   -0.139997514219
     7    0.012222730654
     8    0.002177148028
     9   -0.003892051906
    10   -0.066554911389
    11   -0.014702575371
    12    0.011198374214
    13    0.000003445457
    14   -0.000000000000
    15    0.000000000000
    16    0.197621042756
    17   -0.032815692940
    18    0.000000000000
    19    0.000000000000
    20    0.064387153653
    21   -0.010693999111
    22    0.000000000000
    23   -0.000000000000
    24   -0.028527044045
    25    0.004733453146
    26   -0.000000000000
    27   -0.162349463191
    28    0.315287714359
    29   -0.003508152775
    30    0.004038046724
    31   -0.014760552254
    32    0.320229352305
    33    0.003275950451
    34    0.000235728425
    35    0.008896573962
    36    0.152225336459
    37   -0.033324761944
    38    0.007152971215
    39   -0.000022142082
    40    0.091373690586
    41   -0.177451161839
    42    0.024008800695
    43   -0.026231139866
    44    0.008307516997
    45   -0.180231838086
    46    0.009430659248
    47   -0.006541700712
    48   -0.005004522056
    49   -0.085670425070
    50   -0.020510246893
    51   -0.006951613932
    52    0.000018696625
    53   -0.036011976288
    54   -0.000027420809
    55    0.008718513032
    56   -0.043660754900
    57    0.000926028507
    58    0.005548880494
    59   -0.059883752702
    60   -0.010699728599
    61   -0.003020872001
    62    0.110640124774
    63    0.012691795834
    64   -0.006058407916
    65    0.108719207855
    66    0.011840859688
    67   -0.006986224493
    68    0.099861339021
    69   -0.002111973460
    70   -0.012677511062
    71   -0.072707231567
    72   -0.011813438879
    73   -0.001732288538
    74   -0.056200584120
    75    0.001185944953
    76    0.007128630568
    77   -0.050756372072
    78   -0.001992067235
    79    0.009079279917
Sym= e+   
Ene=  -0.71135090975450E+00
Spin= Alpha
Occup=       2.0000000000
     1   -0.146487131133
     2    0.284482922813
     3    0.019040006818
     4    0.001512362447
     5   -0.013318355992
     6    0.288941402991
     7    0.004929697534
     8    0.004396829581
     9    0.008025801528
    10    0.137349181958
    11    0.003598553216
    12   -0.030989147435
    13   -0.000023578239
    14    0.000000000000
    15   -0.000000000000
    16    0.032815692940
    17    0.197621042756
    18   -0.000000000000
    19   -0.000000000000
    20    0.010693999111
    21    0.064387153653
    22   -0.000000000000
    23    0.000000000000
    24   -0.004733453146
    25   -0.028527044045
    26    0.000000000000
    27    0.011776743437
    28   -0.022871505354
    29    0.010344219373
    30    0.041484723721
    31    0.001070685532
    32   -0.023229297715
    33    0.002988277931
    34    0.013343609785
    35   -0.000642284940
    36   -0.011036346969
    37   -0.000446849782
    38   -0.012366960861
    39    0.000008805266
    40    0.134710387696
    41   -0.261611417459
    42   -0.019924967217
    43    0.013967770251
    44    0.012247670460
    45   -0.265712105276
    46   -0.003789151206
    47    0.007188900987
    48   -0.007383516587
    49   -0.126312834989
    50   -0.014551434930
    51   -0.025181475913
    52    0.000014772973
    53    0.104746603638
    54    0.013656815645
    55   -0.003033361338
    56    0.090102393336
    57   -0.001904054083
    58   -0.011435081202
    59    0.093182310900
    60    0.008477732296
    61   -0.008739748145
    62    0.005269695664
    63    0.005027370633
    64    0.006986025967
    65   -0.021186015513
    66   -0.006804660705
    67   -0.006033773100
    68   -0.007239873776
    69    0.000150062830
    70    0.000912069131
    71   -0.083560588125
    72   -0.006852154940
    73    0.009067134438
    74   -0.082862519560
    75    0.001753991253
    76    0.010523012072
    77   -0.098452006564
    78   -0.013505102929
    79    0.001753722178
Sym= a    
Ene=  -0.59519301392330E+00
Spin= Alpha
Occup=       2.0000000000
     1    0.078270048760
     2   -0.147940562477
     3    0.043846329394
     4   -0.148762553871
     5   -0.042619387348
     6   -0.224445462716
     7    0.005720284157
     8   -0.019398380333
     9   -0.012261460016
    10   -0.074598647780
    11    0.001396175710
    12   -0.004754673439
    13    0.003158396917
    14   -0.107331543354
    15    0.227849737630
    16    0.000000000000
    17   -0.000000000000
    18    0.022672351182
    19    0.376971142124
    20    0.000000000000
    21   -0.000000000000
    22    0.034999486392
    23    0.111574815663
    24   -0.000000000000
    25   -0.000000000000
    26    0.004294401206
    27    0.078270048760
    28   -0.147940562477
    29   -0.150755315481
    30    0.036409241818
    31   -0.042619387348
    32   -0.224445462716
    33   -0.019659632239
    34    0.004745278770
    35   -0.012261460016
    36   -0.074598647780
    37   -0.004815755839
    38    0.001168213086
    39    0.003158396917
    40    0.078270048760
    41   -0.147940562477
    42    0.106908986087
    43    0.112353312054
    44   -0.042619387348
    45   -0.224445462716
    46    0.013939348083
    47    0.014653101563
    48   -0.012261460016
    49   -0.074598647780
    50    0.003419580129
    51    0.003586460352
    52    0.003158396917
    53   -0.090557440504
    54   -0.026681506810
    55    0.013988723428
    56   -0.090360855184
    57   -0.026598171835
    58    0.005315465552
    59   -0.090552758059
    60   -0.026679848318
    61    0.013979050930
    62   -0.090552758059
    63   -0.026679848318
    64    0.013979050930
    65   -0.090557440504
    66   -0.026681506810
    67    0.013988723428
    68   -0.090360855184
    69   -0.026598171835
    70    0.005315465552
    71   -0.090557440504
    72   -0.026681506810
    73    0.013988723428
    74   -0.090360855184
    75   -0.026598171835
    76    0.005315465552
    77   -0.090552758059
    78   -0.026679848318
    79    0.013979050930
Sym= e+   
Ene=  -0.47016450318995E+00
Spin= Alpha
Occup=       2.0000000000
     1   -0.008699717368
     2    0.014453105233
     3    0.212066436698
     4    0.139720924349
     5    0.030635609778
     6    0.040716140646
     7    0.096950232717
     8    0.051697210148
     9    0.005293829124
    10    0.047308385226
    11    0.021463622508
    12    0.005779297794
    13    0.002818782363
    14   -0.000000000000
    15   -0.000000000000
    16    0.299593167201
    17   -0.013444050820
    18    0.000000000000
    19   -0.000000000000
    20    0.172030677204
    21   -0.007717543307
    22   -0.000000000000
    23   -0.000000000000
    24    0.035811334925
    25   -0.001612395390
    26   -0.000000000000
    27    0.026240847148
    28   -0.043587840973
    29   -0.205633450338
    30    0.100130343730
    31   -0.092399394284
    32   -0.122829967434
    33   -0.059911398767
    34    0.036831553898
    35   -0.015981285920
    36   -0.142771925384
    37    0.002634031699
    38    0.003988580591
    39   -0.008530023375
    40   -0.017541129780
    41    0.029134735739
    42    0.037502941746
    43   -0.241813079291
    44    0.061763784506
    45    0.082113826788
    46    0.031393452931
    47   -0.091581775721
    48    0.010687456796
    49    0.095463540158
    50    0.013599633692
    51   -0.011422964791
    52    0.005711241012
    53    0.131982017482
    54    0.065791502551
    55   -0.017118464253
    56    0.029864072896
    57    0.016629838933
    58   -0.009518765632
    59   -0.092247356677
    60   -0.053980994264
    61    0.006763573539
    62   -0.037239249377
    63   -0.005693310558
    64    0.013175889043
    65   -0.082531553333
    66   -0.029883912425
    67    0.018004366148
    68   -0.090152795148
    69   -0.050176581379
    70    0.028749578685
    71   -0.049450464149
    72   -0.035907590126
    73   -0.000885901895
    74    0.060288722253
    75    0.033546742445
    76   -0.019230813053
    77    0.129486606054
    78    0.059674304822
    79   -0.019939462582
Sym= e+   
Ene=  -0.47016450318995E+00
Spin= Alpha
Occup=       2.0000000000
     1    0.025277536165
     2   -0.041986399241
     3    0.141028798490
     4   -0.182775817960
     5   -0.089006152774
     6   -0.118324354763
     7    0.053732551265
     8   -0.051328708130
     9   -0.015397205786
    10   -0.137545310161
    11    0.006882688731
    12    0.003667902758
    13   -0.008222197827
    14    0.000000000000
    15   -0.000000000000
    16    0.013444050820
    17    0.299593167201
    18    0.000000000000
    19   -0.000000000000
    20    0.007717543307
    21    0.172030677204
    22    0.000000000000
    23    0.000000000000
    24    0.001612395390
    25    0.035811334925
    26   -0.000000000000
    27   -0.005104591836
    28    0.008476443325
    29    0.101438217871
    30    0.234924069075
    31    0.017971860059
    32    0.023900965238
    33    0.038866895015
    34    0.105532923354
    35    0.003114012388
    36    0.027802391663
    37    0.005091971528
    38    0.022497493567
    39    0.001669961779
    40   -0.020172944329
    41    0.033509955916
    42   -0.240505205150
    43   -0.008212323009
    44    0.071034292715
    45    0.094423389525
    46   -0.089546434604
    47    0.014228071656
    48    0.012283193398
    49    0.109742918498
    50   -0.010319573854
    51    0.011531891574
    52    0.006552236048
    53   -0.019099375746
    54    0.003477771942
    55    0.010906301339
    56   -0.086857450569
    57   -0.048337683547
    58    0.027701492086
    59   -0.096259217514
    60   -0.037740010336
    61    0.019119157175
    62    0.128018163071
    63    0.065618917522
    64   -0.015417005093
    65   -0.104750092109
    66   -0.058715998534
    67    0.009371874247
    68    0.017565679496
    69    0.009766978797
    70   -0.005607253193
    71    0.123849467855
    72    0.055238226591
    73   -0.020278175586
    74    0.069291771072
    75    0.038570704751
    76   -0.022094238893
    77   -0.031758945558
    78   -0.027878907187
    79   -0.003702152083
Sym= a    
Ene=  -0.46651607156733E+00
Spin= Alpha
Occup=       2.0000000000
     1    0.002569423549
     2    0.000847165923
     3    0.021816209552
     4   -0.074024448965
     5    0.222900338105
     6   -0.050174847156
     7    0.001326418408
     8   -0.004481527923
     9    0.099477251477
    10   -0.072805373427
    11   -0.001644292253
    12    0.005650257836
    13    0.003994982593
    14    0.019439989751
    15   -0.050642370188
    16   -0.000000000000
    17   -0.000000000000
    18    0.236479489271
    19   -0.014983405195
    20   -0.000000000000
    21   -0.000000000000
    22    0.147674177999
    23    0.214543512247
    24   -0.000000000000
    25   -0.000000000000
    26    0.064382912371
    27    0.002569423549
    28    0.000847165923
    29   -0.075015158081
    30    0.018118832797
    31    0.222900338105
    32   -0.050174847156
    33   -0.004544326233
    34    0.001092051925
    35    0.099477251477
    36   -0.072805373427
    37    0.005715412950
    38   -0.001401130055
    39    0.003994982593
    40    0.002569423549
    41    0.000847165923
    42    0.053198948529
    43    0.055905616169
    44    0.222900338105
    45   -0.050174847156
    46    0.003217907825
    47    0.003389475999
    48    0.099477251477
    49   -0.072805373427
    50   -0.004071120697
    51   -0.004249127780
    52    0.003994982593
    53   -0.069781663831
    54   -0.049185446591
    55    0.008721159956
    56    0.122614351112
    57    0.066135584941
    58    0.014141683074
    59   -0.069827025277
    60   -0.049197239688
    61    0.008756896598
    62   -0.069827025277
    63   -0.049197239688
    64    0.008756896598
    65   -0.069781663830
    66   -0.049185446591
    67    0.008721159956
    68    0.122614351112
    69    0.066135584941
    70    0.014141683074
    71   -0.069781663831
    72   -0.049185446591
    73    0.008721159956
    74    0.122614351112
    75    0.066135584941
    76    0.014141683074
    77   -0.069827025277
    78   -0.049197239688
    79    0.008756896598
Sym= e+   
Ene=  -0.39724186209042E+00
Spin= Alpha
Occup=       2.0000000000
     1   -0.001105073328
     2    0.004679821705
     3    0.120070314710
     4    0.037224506251
     5   -0.135317823217
     6   -0.003294694039
     7    0.059980641548
     8    0.023598468172
     9   -0.061783087354
    10   -0.019600487145
    11    0.006467105533
    12    0.009969925481
    13   -0.017832673135
    14   -0.000000000000
    15   -0.000000000000
    16   -0.100860141689
    17    0.009977414138
    18    0.000000000000
    19   -0.000000000000
    20   -0.056393415818
    21    0.005573134699
    22    0.000000000000
    23    0.000000000000
    24   -0.011006194404
    25    0.001079140136
    26    0.000000000000
    27    0.002912753615
    28   -0.012337852182
    29   -0.000118682754
    30    0.019279531146
    31    0.356677971008
    32    0.008703514176
    33   -0.012309846395