 argument  1 = pyridine_input.txt



============================== echo of input deck ==============================
echo

start pyridine

title "Pyridine"

# Geometry optimization with 2 basis sets

memory total 4 gb

charge 0

geometry noautoz
   C       -1.39938       -0.07701       -0.00209
   C       -0.76415        1.16039        0.00885
   C        0.62139        1.18599        0.01763
   N        1.39347        0.07748        0.01620
   C        0.74844       -1.10942        0.00549
   C       -0.63147       -1.23679       -0.00383
   H       -2.48382       -0.13699       -0.00919
   H       -1.33392        2.08257        0.01049
   H        1.16360        2.12708        0.02631
   H        1.39120       -1.98496        0.00456
   H       -1.09599       -2.21617       -0.01225
end

# Geometry optimization using b3lyp/STO-3G level

basis
  * library sto-3g
end

driver
  maxiter 999
end

dft
  xc b3lyp
  mult 1
  maxiter 199
end

cosmo
  solvent water
  do_cosmo_smd false
end

title "Molecular optimization: STO-3G basis set"
task dft optimize

# Geometry optimization using b3lyp/6-31++G level

BASIS "ao basis" SPHERICAL PRINT
#BASIS SET: (5s) -> [3s]
H    S
      0.1873113696E+02       0.3349460434E-01
      0.2825394365E+01       0.2347269535E+00
      0.6401216923E+00       0.8137573261E+00
H    S
      0.1612777588E+00       1.0000000
H    S
      0.3600000000E-01       0.1000000000E+01
#BASIS SET: (5s) -> [3s]
He    S
      0.3842163400E+02       0.4013973935E-01
      0.5778030000E+01       0.2612460970E+00
      0.1241774000E+01       0.7931846246E+00
He    S
      0.2979640000E+00       1.0000000
He    S
      0.8600000000E-01       0.1000000000E+01
#BASIS SET: (11s,5p) -> [4s,3p]
Li    S
      0.6424189150E+03       0.2142607810E-02
      0.9679851530E+02       0.1620887150E-01
      0.2209112120E+02       0.7731557250E-01
      0.6201070250E+01       0.2457860520E+00
      0.1935117680E+01       0.4701890040E+00
      0.6367357890E+00       0.3454708450E+00
Li    SP
      0.2324918408E+01      -0.3509174574E-01       0.8941508043E-02
      0.6324303556E+00      -0.1912328431E+00       0.1410094640E+00
      0.7905343475E-01       0.1083987795E+01       0.9453636953E+00
Li    SP
      0.3596197175E-01       0.1000000000E+01       0.1000000000E+01
Li    SP
      0.7400000000E-02       0.1000000000E+01       0.1000000000E+01
#BASIS SET: (11s,5p) -> [4s,3p]
Be    S
      0.1264585690E+04       0.1944757590E-02
      0.1899368060E+03       0.1483505200E-01
      0.4315908900E+02       0.7209054629E-01
      0.1209866270E+02       0.2371541500E+00
      0.3806323220E+01       0.4691986519E+00
      0.1272890300E+01       0.3565202279E+00
Be    SP
      0.3196463098E+01      -0.1126487285E+00       0.5598019980E-01
      0.7478133038E+00      -0.2295064079E+00       0.2615506110E+00
      0.2199663302E+00       0.1186916764E+01       0.7939723389E+00
Be    SP
      0.8230990070E-01       0.1000000000E+01       0.1000000000E+01
Be    SP
      0.2070000000E-01       0.1000000000E+01       0.1000000000E+01
#BASIS SET: (11s,5p) -> [4s,3p]
B    S
      0.2068882250E+04       0.1866274590E-02
      0.3106495700E+03       0.1425148170E-01
      0.7068303300E+02       0.6955161850E-01
      0.1986108030E+02       0.2325729330E+00
      0.6299304840E+01       0.4670787120E+00
      0.2127026970E+01       0.3634314400E+00
B    SP
      0.4727971071E+01      -0.1303937974E+00       0.7459757992E-01
      0.1190337736E+01      -0.1307889514E+00       0.3078466771E+00
      0.3594116829E+00       0.1130944484E+01       0.7434568342E+00
B    SP
      0.1267512469E+00       0.1000000000E+01       0.1000000000E+01
B    SP
      0.3150000000E-01       0.1000000000E+01       0.1000000000E+01
#BASIS SET: (11s,5p) -> [4s,3p]
C    S
      0.3047524880E+04       0.1834737132E-02
      0.4573695180E+03       0.1403732281E-01
      0.1039486850E+03       0.6884262226E-01
      0.2921015530E+02       0.2321844432E+00
      0.9286662960E+01       0.4679413484E+00
      0.3163926960E+01       0.3623119853E+00
C    SP
      0.7868272350E+01      -0.1193324198E+00       0.6899906659E-01
      0.1881288540E+01      -0.1608541517E+00       0.3164239610E+00
      0.5442492580E+00       0.1143456438E+01       0.7443082909E+00
C    SP
      0.1687144782E+00       0.1000000000E+01       0.1000000000E+01
C    SP
      0.4380000000E-01       0.1000000000E+01       0.1000000000E+01
#BASIS SET: (11s,5p) -> [4s,3p]
N    S
      0.4173511460E+04       0.1834772160E-02
      0.6274579110E+03       0.1399462700E-01
      0.1429020930E+03       0.6858655181E-01
      0.4023432930E+02       0.2322408730E+00
      0.1282021290E+02       0.4690699481E+00
      0.4390437010E+01       0.3604551991E+00
N    SP
      0.1162636186E+02      -0.1149611817E+00       0.6757974388E-01
      0.2716279807E+01      -0.1691174786E+00       0.3239072959E+00
      0.7722183966E+00       0.1145851947E+01       0.7408951398E+00
N    SP
      0.2120314975E+00       0.1000000000E+01       0.1000000000E+01
N    SP
      0.6390000000E-01       0.1000000000E+01       0.1000000000E+01
#BASIS SET: (11s,5p) -> [4s,3p]
O    S
      0.5484671660E+04       0.1831074430E-02
      0.8252349460E+03       0.1395017220E-01
      0.1880469580E+03       0.6844507810E-01
      0.5296450000E+02       0.2327143360E+00
      0.1689757040E+02       0.4701928980E+00
      0.5799635340E+01       0.3585208530E+00
O    SP
      0.1553961625E+02      -0.1107775495E+00       0.7087426823E-01
      0.3599933586E+01      -0.1480262627E+00       0.3397528391E+00
      0.1013761750E+01       0.1130767015E+01       0.7271585773E+00
O    SP
      0.2700058226E+00       0.1000000000E+01       0.1000000000E+01
O    SP
      0.8450000000E-01       0.1000000000E+01       0.1000000000E+01
#BASIS SET: (11s,5p) -> [4s,3p]
F    S
      0.7001713090E+04       0.1819616901E-02
      0.1051366090E+04       0.1391607961E-01
      0.2392856900E+03       0.6840532453E-01
      0.6739744530E+02       0.2331857601E+00
      0.2151995730E+02       0.4712674392E+00
      0.7403101300E+01       0.3566185462E+00
F    SP
      0.2084795280E+02      -0.1085069751E+00       0.7162872424E-01
      0.4808308340E+01      -0.1464516581E+00       0.3459121027E+00
      0.1344069860E+01       0.1128688581E+01       0.7224699564E+00
F    SP
      0.3581513930E+00       0.1000000000E+01       0.1000000000E+01
F    SP
      0.1076000000E+00       0.1000000000E+01       0.1000000000E+01
#BASIS SET: (11s,5p) -> [4s,3p]
Ne    S
      0.8425851530E+04       0.1884348050E-02
      0.1268519400E+04       0.1433689940E-01
      0.2896214140E+03       0.7010962331E-01
      0.8185900400E+02       0.2373732660E+00
      0.2625150790E+02       0.4730071261E+00
      0.9094720510E+01       0.3484012410E+00
Ne    SP
      0.2653213100E+02      -0.1071182872E+00       0.7190958851E-01
      0.6101755010E+01      -0.1461638213E+00       0.3495133720E+00
      0.1696271530E+01       0.1127773503E+01       0.7199405121E+00
Ne    SP
      0.4458187000E+00       0.1000000000E+01       0.1000000000E+01
Ne    SP
      0.1300000000E+00       0.1000000000E+01       0.1000000000E+01
#BASIS SET: (17s,11p) -> [5s,4p]
Na    S
      0.9993200000E+04       0.1937659277E-02
      0.1499890000E+04       0.1480699448E-01
      0.3419510000E+03       0.7270547288E-01
      0.9467960000E+02       0.2526289058E+00
      0.2973450000E+02       0.4932418160E+00
      0.1000630000E+02       0.3131688832E+00
Na    SP
      0.1509630000E+03      -0.3542083504E-02       0.5001659710E-02
      0.3558780000E+02      -0.4395884348E-01       0.3551089794E-01
      0.1116830000E+02      -0.1097521086E+00       0.1428249917E+00
      0.3902010000E+01       0.1873981854E+00       0.3386199803E+00
      0.1381770000E+01       0.6466996397E+00       0.4515789738E+00
      0.4663820000E+00       0.3060583027E+00       0.2732709841E+00
Na    SP
      0.4979660000E+00      -0.2485031593E+00      -0.2302250043E-01
      0.8435290000E-01      -0.1317040844E+00       0.9503590176E+00
      0.6663500000E-01       0.1233520791E+01       0.5985790111E-01
Na    SP
      0.2595440000E-01       0.1000000000E+01       0.1000000000E+01
Na    SP
      0.7600000000E-02       0.1000000000E+01       0.1000000000E+01
#BASIS SET: (17s,11p) -> [5s,4p]
Mg    S
      0.1172280000E+05       0.1977829317E-02
      0.1759930000E+04       0.1511399478E-01
      0.4008460000E+03       0.7391077448E-01
      0.1128070000E+03       0.2491909140E+00
      0.3599970000E+02       0.4879278316E+00
      0.1218280000E+02       0.3196618896E+00
Mg    SP
      0.1891800000E+03      -0.3237170471E-02       0.4928129921E-02
      0.4521190000E+02      -0.4100790597E-01       0.3498879944E-01
      0.1435630000E+02      -0.1126000164E+00       0.1407249977E+00
      0.5138860000E+01       0.1486330216E+00       0.3336419947E+00
      0.1906520000E+01       0.6164970898E+00       0.4449399929E+00
      0.7058870000E+00       0.3648290531E+00       0.2692539957E+00
Mg    SP
      0.9293400000E+00      -0.2122908985E+00      -0.2241918123E-01
      0.2690350000E+00      -0.1079854570E+00       0.1922708390E+00
      0.1173790000E+00       0.1175844977E+01       0.8461802916E+00
Mg    SP
      0.4210610000E-01       0.1000000000E+01       0.1000000000E+01
Mg    SP
      0.1460000000E-01       0.1000000000E+01       0.1000000000E+01
#BASIS SET: (17s,11p) -> [5s,4p]
Al    S
      0.1398310000E+05       0.1942669947E-02
      0.2098750000E+04       0.1485989959E-01
      0.4777050000E+03       0.7284939800E-01
      0.1343600000E+03       0.2468299932E+00
      0.4287090000E+02       0.4872579866E+00
      0.1451890000E+02       0.3234959911E+00
Al    SP
      0.2396680000E+03      -0.2926190028E-02       0.4602845582E-02
      0.5744190000E+02      -0.3740830036E-01       0.3319896813E-01
      0.1828590000E+02      -0.1144870011E+00       0.1362818692E+00
      0.6599140000E+01       0.1156350011E+00       0.3304756828E+00
      0.2490490000E+01       0.6125950058E+00       0.4491455689E+00
      0.9445450000E+00       0.3937990037E+00       0.2657037450E+00
Al    SP
      0.1277900000E+01      -0.2276069245E+00      -0.1751260189E-01
      0.3975900000E+00       0.1445835873E-02       0.2445330264E+00
      0.1600950000E+00       0.1092794439E+01       0.8049340867E+00
Al    SP
      0.5565770000E-01       0.1000000000E+01       0.1000000000E+01
Al    SP
      0.3180000000E-01       0.1000000000E+01       0.1000000000E+01
#BASIS SET: (17s,11p) -> [5s,4p]
Si    S
      0.1611590000E+05       0.1959480216E-02
      0.2425580000E+04       0.1492880164E-01
      0.5538670000E+03       0.7284780801E-01
      0.1563400000E+03       0.2461300271E+00
      0.5006830000E+02       0.4859140535E+00
      0.1701780000E+02       0.3250020358E+00
Si    SP
      0.2927180000E+03      -0.2780941415E-02       0.4438264521E-02
      0.6987310000E+02      -0.3571461817E-01       0.3266793328E-01
      0.2233630000E+02      -0.1149850585E+00       0.1347211372E+00
      0.8150390000E+01       0.9356344760E-01       0.3286783348E+00
      0.3134580000E+01       0.6030173068E+00       0.4496404580E+00
      0.1225430000E+01       0.4189592131E+00       0.2613722662E+00
Si    SP
      0.1727380000E+01      -0.2446310042E+00      -0.1779510605E-01
      0.5729220000E+00       0.4315737717E-02       0.2535390863E+00
      0.2221920000E+00       0.1098184508E+01       0.8006692724E+00
Si    SP
      0.7783690000E-01       0.1000000000E+01       0.1000000000E+01
Si    SP
      0.3310000000E-01       0.1000000000E+01       0.1000000000E+01
#BASIS SET: (17s,11p) -> [5s,4p]
P    S
      0.1941330000E+05       0.1851598923E-02
      0.2909420000E+04       0.1420619174E-01
      0.6613640000E+03       0.6999945928E-01
      0.1857590000E+03       0.2400788603E+00
      0.5919430000E+02       0.4847617180E+00
      0.2003100000E+02       0.3351998050E+00
P    SP
      0.3394780000E+03      -0.2782170105E-02       0.4564616191E-02
      0.8101010000E+02      -0.3604990135E-01       0.3369357188E-01
      0.2587800000E+02      -0.1166310044E+00       0.1397548834E+00
      0.9452210000E+01       0.9683280364E-01       0.3393617168E+00
      0.3665660000E+01       0.6144180231E+00       0.4509206237E+00
      0.1467460000E+01       0.4037980152E+00       0.2385858009E+00
P    SP
      0.2156230000E+01      -0.2529241139E+00      -0.1776531273E-01
      0.7489970000E+00       0.3285184468E-01       0.2740581964E+00
      0.2831450000E+00       0.1081254762E+01       0.7854215630E+00
P    SP
      0.9983170000E-01       0.1000000000E+01       0.1000000000E+01
P    SP
      0.3480000000E-01       0.1000000000E+01       0.1000000000E+01
#BASIS SET: (17s,11p) -> [5s,4p]
S    S
      0.2191710000E+05       0.1869240849E-02
      0.3301490000E+04       0.1423030646E-01
      0.7541460000E+03       0.6969623166E-01
      0.2127110000E+03       0.2384871083E+00
      0.6798960000E+02       0.4833072195E+00
      0.2305150000E+02       0.3380741536E+00
S    SP
      0.4237350000E+03      -0.2376770499E-02       0.4061009982E-02
      0.1007100000E+03      -0.3169300665E-01       0.3068129986E-01
      0.3215990000E+02      -0.1133170238E+00       0.1304519994E+00
      0.1180790000E+02       0.5609001177E-01       0.3272049985E+00
      0.4631100000E+01       0.5922551243E+00       0.4528509980E+00
      0.1870250000E+01       0.4550060955E+00       0.2560419989E+00
S    SP
      0.2615840000E+01      -0.2503731142E+00      -0.1451048955E-01
      0.9221670000E+00       0.6695676310E-01       0.3102627765E+00
      0.3412870000E+00       0.1054506269E+01       0.7544824565E+00
S    SP
      0.1171670000E+00       0.1000000000E+01       0.1000000000E+01
S    SP
      0.4050000000E-01       0.1000000000E+01       0.1000000000E+01
#BASIS SET: (17s,11p) -> [5s,4p]
Cl    S
      0.2518010000E+05       0.1832959848E-02
      0.3780350000E+04       0.1403419883E-01
      0.8604740000E+03       0.6909739426E-01
      0.2421450000E+03       0.2374519803E+00
      0.7733490000E+02       0.4830339599E+00
      0.2624700000E+02       0.3398559718E+00
Cl    SP
      0.4917650000E+03      -0.2297391417E-02       0.3989400879E-02
      0.1169840000E+03      -0.3071371894E-01       0.3031770668E-01
      0.3741530000E+02      -0.1125280694E+00       0.1298800286E+00
      0.1378340000E+02       0.4501632776E-01       0.3279510723E+00
      0.5452150000E+01       0.5893533634E+00       0.4535271000E+00
      0.2225880000E+01       0.4652062868E+00       0.2521540556E+00
Cl    SP
      0.3186490000E+01      -0.2518280280E+00      -0.1429931472E-01
      0.1144270000E+01       0.6158925141E-01       0.3235723331E+00
      0.4203770000E+00       0.1060184328E+01       0.7435077653E+00
Cl    SP
      0.1426570000E+00       0.1000000000E+01       0.1000000000E+01
Cl    SP
      0.4830000000E-01       0.1000000000E+01       0.1000000000E+01
#BASIS SET: (17s,11p) -> [5s,4p]
Ar    S
      0.2834830000E+05       0.1825260192E-02
      0.4257620000E+04       0.1396860147E-01
      0.9698570000E+03       0.6870730723E-01
      0.2732630000E+03       0.2362040249E+00
      0.8736950000E+02       0.4822140508E+00
      0.2968670000E+02       0.3420430360E+00
Ar    SP
      0.5758910000E+03      -0.2159720895E-02       0.3806649842E-02
      0.1368160000E+03      -0.2907751206E-01       0.2923049879E-01
      0.4380980000E+02      -0.1108270460E+00       0.1264669948E+00
      0.1620940000E+02       0.2769991148E-01       0.3235099866E+00
      0.6460840000E+01       0.5776132395E+00       0.4548959811E+00
      0.2651140000E+01       0.4886882026E+00       0.2566299894E+00
Ar    SP
      0.3860280000E+01      -0.2555929604E+00      -0.1591969040E-01
      0.1413730000E+01       0.3780674206E-01       0.3246458042E+00
      0.5166460000E+00       0.1080564060E+01       0.7439895512E+00
Ar    SP
      0.1738880000E+00       0.1000000000E+01       0.1000000000E+01
Ar    SP
      0.6000000000E-01       0.1000000000E+01       0.1000000000E+01
end

driver
  maxiter 999
end

dft
  xc b3lyp
  mult 1
  maxiter 199
end

cosmo
  solvent water
  do_cosmo_smd false
end

property
  dipole
  mulliken
  moldenfile
  molden_norm janpa
end

task dft optimize

task dft energy

task dft property
================================================================================


                                         
                                         


             Northwest Computational Chemistry Package (NWChem) 7.0.2
             --------------------------------------------------------


                    Environmental Molecular Sciences Laboratory
                       Pacific Northwest National Laboratory
                                Richland, WA 99352

                              Copyright (c) 1994-2020
                       Pacific Northwest National Laboratory
                            Battelle Memorial Institute

             NWChem is an open-source computational chemistry package
                        distributed under the terms of the
                      Educational Community License (ECL) 2.0
             A copy of the license is included with this distribution
                              in the LICENSE.TXT file

                                  ACKNOWLEDGMENT
                                  --------------

            This software and its documentation were developed at the
            EMSL at Pacific Northwest National Laboratory, a multiprogram
            national laboratory, operated for the U.S. Department of Energy
            by Battelle under Contract Number DE-AC05-76RL01830. Support
            for this work was provided by the Department of Energy Office
            of Biological and Environmental Research, Office of Basic
            Energy Sciences, and the Office of Advanced Scientific Computing.


           Job information
           ---------------

    hostname        = NewSitt
    program         = nwchem
    date            = Sun Dec  1 19:48:33 2024

    compiled        = Sat_Apr_09_17:12:10_2022
    source          = /build/nwchem-f1f4gx/nwchem-7.0.2/build-openmpi
    nwchem branch   = 7.0.2
    nwchem revision = N/A
    ga revision     = 5.8.1
    use scalapack   = T
    input           = pyridine_input.txt
    prefix          = pyridine.
    data base       = ./pyridine.db
    status          = startup
    nproc           =        4
    time left       =     -1s



           Memory information
           ------------------

    heap     =  134217722 doubles =   1024.0 Mbytes
    stack    =  134217727 doubles =   1024.0 Mbytes
    global   =  268435456 doubles =   2048.0 Mbytes (distinct from heap & stack)
    total    =  536870905 doubles =   4096.0 Mbytes
    verify   = yes
    hardfail = no 


           Directory information
           ---------------------

  0 permanent = .
  0 scratch   = .




                                NWChem Input Module
                                -------------------


                                     Pyridine
                                     --------

 Scaling coordinates for geometry "geometry" by  1.889725989
 (inverse scale =  0.529177249)

 C2V symmetry detected


                             Geometry "geometry" -> ""
                             -------------------------

 Output coordinates in angstroms (scale by  1.889725989 to convert to a.u.)

  No.       Tag          Charge          X              Y              Z
 ---- ---------------- ---------- -------------- -------------- --------------
    1 C                    6.0000     0.00000000     0.00000000     1.37399099
    2 C                    6.0000     0.00000000     1.20044124     0.67133330
    3 C                    6.0000     0.00000000     1.14947772    -0.71353503
    4 N                    7.0000     0.00000000     0.00000000    -1.42318844
    5 C                    6.0000     0.00000000    -1.14947772    -0.71353503
    6 C                    6.0000     0.00000000    -1.20044124     0.67133330
    7 H                    1.0000     0.00000000     0.00000000     2.46011167
    8 H                    1.0000     0.00000000     2.15268979     1.18927963
    9 H                    1.0000     0.00000000     2.05919570    -1.30693851
   10 H                    1.0000     0.00000000    -2.05919570    -1.30693851
   11 H                    1.0000     0.00000000    -2.15268979     1.18927963

      Atomic Mass 
      ----------- 

      C                 12.000000
      N                 14.003070
      H                  1.007825


 Effective nuclear repulsion energy (a.u.)     205.9419429145

            Nuclear Dipole moment (a.u.) 
            ----------------------------
        X                 Y               Z
 ---------------- ---------------- ----------------
     0.0000000000    -0.0000000000    -0.0000000000

      Symmetry information
      --------------------

 Group name             C2v       
 Group number             16
 Group order               4
 No. of unique centers     7

      Symmetry unique atoms

     1    2    3    4    7    8    9


            XYZ format geometry
            -------------------
    11
 geometry
 C                     0.00000000     0.00000000     1.37399099
 C                     0.00000000     1.20044124     0.67133330
 C                     0.00000000     1.14947772    -0.71353503
 N                     0.00000000     0.00000000    -1.42318844
 C                     0.00000000    -1.14947772    -0.71353503
 C                     0.00000000    -1.20044124     0.67133330
 H                     0.00000000     0.00000000     2.46011167
 H                     0.00000000     2.15268979     1.18927963
 H                     0.00000000     2.05919570    -1.30693851
 H                     0.00000000    -2.05919570    -1.30693851
 H                     0.00000000    -2.15268979     1.18927963

 ==============================================================================
                                internuclear distances
 ------------------------------------------------------------------------------
       center one      |      center two      | atomic units |  angstroms
 ------------------------------------------------------------------------------
    2 C                |   1 C                |     2.62855  |     1.39097
    3 C                |   2 C                |     2.61879  |     1.38581
    4 N                |   3 C                |     2.55281  |     1.35089
    5 C                |   4 N                |     2.55281  |     1.35089
    6 C                |   1 C                |     2.62855  |     1.39097
    6 C                |   5 C                |     2.61879  |     1.38581
    7 H                |   1 C                |     2.05247  |     1.08612
    8 H                |   2 C                |     2.04845  |     1.08400
    9 H                |   3 C                |     2.05252  |     1.08615
   10 H                |   5 C                |     2.05252  |     1.08615
   11 H                |   6 C                |     2.04845  |     1.08400
 ------------------------------------------------------------------------------
                         number of included internuclear distances:         11
 ==============================================================================



 ==============================================================================
                                 internuclear angles
 ------------------------------------------------------------------------------
        center 1       |       center 2       |       center 3       |  degrees
 ------------------------------------------------------------------------------
    2 C                |   1 C                |   6 C                |   119.32
    2 C                |   1 C                |   7 H                |   120.34
    6 C                |   1 C                |   7 H                |   120.34
    1 C                |   2 C                |   3 C                |   118.23
    1 C                |   2 C                |   8 H                |   121.12
    3 C                |   2 C                |   8 H                |   120.65
    2 C                |   3 C                |   4 N                |   123.80
    2 C                |   3 C                |   9 H                |   121.01
    4 N                |   3 C                |   9 H                |   115.19
    3 C                |   4 N                |   5 C                |   116.62
    4 N                |   5 C                |   6 C                |   123.80
    4 N                |   5 C                |  10 H                |   115.19
    6 C                |   5 C                |  10 H                |   121.01
    1 C                |   6 C                |   5 C                |   118.23
    1 C                |   6 C                |  11 H                |   121.12
    5 C                |   6 C                |  11 H                |   120.65
 ------------------------------------------------------------------------------
                            number of included internuclear angles:         16
 ==============================================================================





 Summary of "ao basis" -> "" (cartesian)
 ------------------------------------------------------------------------------
       Tag                 Description            Shells   Functions and Types
 ---------------- ------------------------------  ------  ---------------------
 *                           sto-3g                   on all atoms 


                     Molecular optimization: STO-3G basis set
                     ----------------------------------------


                           NWChem Geometry Optimization
                           ----------------------------




                     Molecular optimization: STO-3G basis set


 maximum gradient threshold         (gmax) =   0.000450
 rms gradient threshold             (grms) =   0.000300
 maximum cartesian step threshold   (xmax) =   0.001800
 rms cartesian step threshold       (xrms) =   0.001200
 fixed trust radius                (trust) =   0.300000
 maximum step size to saddle      (sadstp) =   0.100000
 energy precision                  (eprec) =   5.0D-06
 maximum number of steps          (nptopt) =  999
 initial hessian option           (inhess) =    0
 line search option               (linopt) =    1
 hessian update option            (modupd) =    1
 saddle point option              (modsad) =    0
 initial eigen-mode to follow     (moddir) =    0
 initial variable to follow       (vardir) =    0
 follow first negative mode     (firstneg) =    T
 apply conjugacy                    (opcg) =    F
 source of zmatrix                         =           


          -------------------
          Energy Minimization
          -------------------


 Using diagonal initial Hessian 

          --------
          Step   0
          --------


                         Geometry "geometry" -> "geometry"
                         ---------------------------------

 Output coordinates in angstroms (scale by  1.889725989 to convert to a.u.)

  No.       Tag          Charge          X              Y              Z
 ---- ---------------- ---------- -------------- -------------- --------------
    1 C                    6.0000     0.00000000     0.00000000     1.37399099
    2 C                    6.0000     0.00000000     1.20044124     0.67133330
    3 C                    6.0000     0.00000000     1.14947772    -0.71353503
    4 N                    7.0000     0.00000000     0.00000000    -1.42318844
    5 C                    6.0000     0.00000000    -1.14947772    -0.71353503
    6 C                    6.0000     0.00000000    -1.20044124     0.67133330
    7 H                    1.0000     0.00000000     0.00000000     2.46011167
    8 H                    1.0000     0.00000000     2.15268979     1.18927963
    9 H                    1.0000     0.00000000     2.05919570    -1.30693851
   10 H                    1.0000     0.00000000    -2.05919570    -1.30693851
   11 H                    1.0000     0.00000000    -2.15268979     1.18927963

      Atomic Mass 
      ----------- 

      C                 12.000000
      N                 14.003070
      H                  1.007825


 Effective nuclear repulsion energy (a.u.)     205.9419429145

            Nuclear Dipole moment (a.u.) 
            ----------------------------
        X                 Y               Z
 ---------------- ---------------- ----------------
     0.0000000000    -0.0000000000    -0.0000000000

      Symmetry information
      --------------------

 Group name             C2v       
 Group number             16
 Group order               4
 No. of unique centers     7

      Symmetry unique atoms

     1    2    3    4    7    8    9


                                 NWChem DFT Module
                                 -----------------


                     Molecular optimization: STO-3G basis set


                      Basis "ao basis" -> "ao basis" (cartesian)
                      -----
  C (Carbon)
  ----------
            Exponent  Coefficients 
       -------------- ---------------------------------------------------------
  1 S  7.16168370E+01  0.154329
  1 S  1.30450960E+01  0.535328
  1 S  3.53051220E+00  0.444635

  2 S  2.94124940E+00 -0.099967
  2 S  6.83483100E-01  0.399513
  2 S  2.22289900E-01  0.700115

  3 P  2.94124940E+00  0.155916
  3 P  6.83483100E-01  0.607684
  3 P  2.22289900E-01  0.391957

  N (Nitrogen)
  ------------
            Exponent  Coefficients 
       -------------- ---------------------------------------------------------
  1 S  9.91061690E+01  0.154329
  1 S  1.80523120E+01  0.535328
  1 S  4.88566020E+00  0.444635

  2 S  3.78045590E+00 -0.099967
  2 S  8.78496600E-01  0.399513
  2 S  2.85714400E-01  0.700115

  3 P  3.78045590E+00  0.155916
  3 P  8.78496600E-01  0.607684
  3 P  2.85714400E-01  0.391957

  H (Hydrogen)
  ------------
            Exponent  Coefficients 
       -------------- ---------------------------------------------------------
  1 S  3.42525091E+00  0.154329
  1 S  6.23913730E-01  0.535328
  1 S  1.68855400E-01  0.444635



 Summary of "ao basis" -> "ao basis" (cartesian)
 ------------------------------------------------------------------------------
       Tag                 Description            Shells   Functions and Types
 ---------------- ------------------------------  ------  ---------------------
 C                           sto-3g                  3        5   2s1p
 N                           sto-3g                  3        5   2s1p
 H                           sto-3g                  1        1   1s




 Summary of "ao basis" -> "ao basis" (cartesian)
 ------------------------------------------------------------------------------
       Tag                 Description            Shells   Functions and Types
 ---------------- ------------------------------  ------  ---------------------
 C                           sto-3g                  3        5   2s1p
 N                           sto-3g                  3        5   2s1p
 H                           sto-3g                  1        1   1s


      Symmetry analysis of basis
      --------------------------

        a1         17
        a2          2
        b1          4
        b2         12


 solvent parameters
 solvname_short: h2o     
 solvname_long:  water                              
 dielec:       78.4000
 dielecinf:     1.7769

          ---------------
          -cosmo- solvent
          ---------------
 Cosmo: York-Karplus, doi: 10.1021/jp992097l
 dielectric constant -eps-     =  78.40
 screen = (eps-1)/(eps    )    =   0.98724
 surface charge correction     = lagrangian
 -lineq- algorithm             =   0
 -bem- low  level              =   2
 -bem- from -octahedral-
 gaussian surface charge width =   0.98000
 degree of switching           =   1.00000
 switching function tolerance  =   0.00010
 atomic radii = 
 --------------
    1  6.000  2.000
    2  6.000  2.000
    3  6.000  2.000
    4  7.000  1.830
    5  6.000  2.000
    6  6.000  2.000
    7  1.000  1.300
    8  1.000  1.300
    9  1.000  1.300
   10  1.000  1.300
   11  1.000  1.300

 solvent accessible surface
 --------------------------

 ---------- ATOMIC COORDINATES (A.U.) ------------ VDWR(ANG.) --
     1    0.00000000    0.00000000    2.59646649     2.000
     2    0.00000000    2.26850501    1.26863598     2.000
     3    0.00000000    2.17219793   -1.34838569     2.000
     4    0.00000000    0.00000000   -2.68943618     1.830
     5    0.00000000   -2.17219793   -1.34838569     2.000
     6    0.00000000   -2.26850501    1.26863598     2.000
     7    0.00000000    0.00000000    4.64893696     1.300
     8    0.00000000    4.06799384    2.24741262     1.300
     9    0.00000000    3.89131563   -2.46975567     1.300
    10    0.00000000   -3.89131563   -2.46975567     1.300
    11    0.00000000   -4.06799384    2.24741262     1.300
 number of segments per atom =         32
 number of   points per atom =         32
 atom (   nspa,  nppa )
 ----------------------
    1 (     12,     0 )       0
    2 (     14,     0 )       0
    3 (     14,     0 )       0
    4 (     16,     0 )       0
    5 (     14,     0 )       0
    6 (     14,     0 )       0
    7 (     16,     0 )       0
    8 (     16,     0 )       0
    9 (     14,     0 )       0
   10 (     14,     0 )       0
   11 (     16,     0 )       0
 number of -cosmo- surface points =      160
 molecular surface =    131.425 angstrom**2
 molecular volume  =     79.758 angstrom**3
 G(cav/disp)       =      1.517 kcal/mol
 ...... end of -cosmo- initialization ......


  Caching 1-el integrals 

            General Information
            -------------------
          SCF calculation type: DFT
          Wavefunction type:  closed shell.
          No. of atoms     :    11
          No. of electrons :    42
           Alpha electrons :    21
            Beta electrons :    21
          Charge           :     0
          Spin multiplicity:     1
          Use of symmetry is: on ; symmetry adaption is: on 
          Maximum number of iterations: 199
          AO basis - number of functions:    35
                     number of shells:    23
          Convergence on energy requested:  1.00D-06
          Convergence on density requested:  1.00D-05
          Convergence on gradient requested:  5.00D-04

              XC Information
              --------------
                         B3LYP Method XC Potential
                     Hartree-Fock (Exact) Exchange  0.200          
                        Slater Exchange Functional  0.800 local    
                    Becke 1988 Exchange Functional  0.720 non-local
              Lee-Yang-Parr Correlation Functional  0.810          
                  VWN I RPA Correlation Functional  0.190 local    

             Grid Information
             ----------------
          Grid used for XC integration:  medium    
          Radial quadrature: Mura-Knowles        
          Angular quadrature: Lebedev. 
          Tag              B.-S. Rad. Rad. Pts. Rad. Cut. Ang. Pts.
          ---              ---------- --------- --------- ---------
          C                   0.70       49          10.0       434
          N                   0.65       49          10.0       434
          H                   0.35       45          11.0       434
          Grid pruning is: on 
          Number of quadrature shells:   331
          Spatial weights used:  Erf1

          Convergence Information
          -----------------------
          Convergence aids based upon iterative change in 
          total energy or number of iterations. 
          Levelshifting, if invoked, occurs when the 
          HOMO/LUMO gap drops below (HL_TOL):  1.00D-02
          DIIS, if invoked, will attempt to extrapolate 
          using up to (NFOCK): 10 stored Fock matrices.

                    Damping( 0%)  Levelshifting(0.5)       DIIS
                  --------------- ------------------- ---------------
          dE  on:    start            ASAP                start   
          dE off:    2 iters        199 iters           199 iters 


      Screening Tolerance Information
      -------------------------------
          Density screening/tol_rho:  1.00D-10
          AO Gaussian exp screening on grid/accAOfunc:  14
          CD Gaussian exp screening on grid/accCDfunc:  20
          XC Gaussian exp screening on grid/accXCfunc:  20
          Schwarz screening/accCoul:  1.00D-08


      Superposition of Atomic Density Guess
      -------------------------------------

 Sum of atomic energies:        -241.84033976

      Non-variational initial energy
      ------------------------------

 Total energy =    -243.837046
 1-e energy   =    -740.069881
 2-e energy   =     290.290891
 HOMO         =      -0.096315
 LUMO         =       0.186936


      Symmetry analysis of molecular orbitals - initial
      -------------------------------------------------

  Numbering of irreducible representations: 

     1 a1          2 a2          3 b1          4 b2      

  Orbital symmetries:

     1 a1          2 a1          3 b2          4 a1          5 a1      
     6 b2          7 a1          8 a1          9 b2         10 b2      
    11 a1         12 a1         13 a1         14 b2         15 b2      
    16 a1         17 b1         18 b2         19 b1         20 a1      
    21 a2         22 b1         23 a2         24 b1         25 a1      
    26 b2         27 a1         28 a1         29 b2         30 a1      
    31 b2      

   Time after variat. SCF:      1.1
   Time prior to 1st pass:      1.1

 #quartets = 1.865D+04 #integrals = 6.153D+04 #direct =  0.0% #cached =100.0%


 Integral file          = ./pyridine.aoints.0
 Record size in doubles =  65536        No. of integs per rec  =  43688
 Max. records in memory =      2        Max. records in file   =  76763
 No. of bits per label  =      8        No. of bits per value  =     64


File balance: exchanges=     0  moved=     0  time=   0.0


 Grid_pts file          = ./pyridine.gridpts.0
 Record size in doubles =  12289        No. of grid_pts per rec  =   3070
 Max. records in memory =     14        Max. recs in file   =    511682


           Memory utilization after 1st SCF pass: 
           Heap Space remaining (MW):      133.91           133910930
          Stack Space remaining (MW):      134.22           134217252

   convergence    iter        energy       DeltaE   RMS-Dens  Diis-err    time
 ---------------- ----- ----------------- --------- --------- ---------  ------
     COSMO gas phase
 d= 0,ls=0.0,diis     1   -245.1047995563 -4.51D+02  3.75D-02  4.78D-01     2.2
 d= 0,ls=0.0,diis     2   -245.0606098822  4.42D-02  2.49D-02  7.70D-01     2.3
 d= 0,ls=0.0,diis     3   -245.1764079641 -1.16D-01  5.43D-03  1.76D-02     2.4
 d= 0,ls=0.0,diis     4   -245.1784827773 -2.07D-03  2.32D-03  5.97D-03     2.6
 d= 0,ls=0.0,diis     5   -245.1795650034 -1.08D-03  2.67D-04  7.28D-05     2.7
  Resetting Diis
 d= 0,ls=0.0,diis     6   -245.1795763722 -1.14D-05  6.88D-05  3.35D-06     2.8
 d= 0,ls=0.0,diis     7   -245.1795767587 -3.87D-07  5.94D-05  1.10D-06     2.9
 d= 0,ls=0.0,diis     8   -245.1795766355  1.23D-07  3.48D-05  1.88D-06     3.0
 d= 0,ls=0.0,diis     9   -245.1795769202 -2.85D-07  1.97D-06  4.48D-09     3.1

           Memory utilization after 1st SCF pass: 
           Heap Space remaining (MW):      133.91           133910258
          Stack Space remaining (MW):      134.22           134217252

   convergence    iter        energy       DeltaE   RMS-Dens  Diis-err    time
 ---------------- ----- ----------------- --------- --------- ---------  ------
     COSMO solvation phase
 d= 0,ls=0.0,diis     1   -245.1838612577 -4.28D-03  3.04D-03  1.73D-03     3.3
 d= 0,ls=0.0,diis     2   -245.1838702490 -8.99D-06  1.56D-03  2.33D-03     3.5
 d= 0,ls=0.0,diis     3   -245.1842950793 -4.25D-04  2.55D-04  5.48D-05     3.7
 d= 0,ls=0.0,diis     4   -245.1843042609 -9.18D-06  5.36D-05  2.78D-06     3.9
 d= 0,ls=0.0,diis     5   -245.1843045864 -3.26D-07  2.15D-05  6.56D-07     4.2
 d= 0,ls=0.0,diis     6   -245.1843046903 -1.04D-07  1.20D-06  1.78D-09     4.3


         Total DFT energy =     -245.184304690262
      One electron energy =     -739.165389289355
           Coulomb energy =      323.719176480699
    Exchange-Corr. energy =      -35.872265136561
 Nuclear repulsion energy =      205.941942914499

             COSMO energy =        0.192230340456

 Numeric. integr. density =       41.999989881373

     Total iterative time =      3.3s


                                   COSMO solvation results
                                   -----------------------

                 gas phase energy =      -245.179576920152
                 sol phase energy =      -245.184304690262
 (electrostatic) solvation energy =         0.004727770110 (    2.97 kcal/mol)

                  Occupations of the irreducible representations
                  ----------------------------------------------

                     irrep           alpha         beta
                     --------     --------     --------
                     a1               11.0         11.0
                     a2                1.0          1.0
                     b1                2.0          2.0
                     b2                7.0          7.0


                       DFT Final Molecular Orbital Analysis
                       ------------------------------------

 Vector    1  Occ=2.000000D+00  E=-1.413377D+01  Symmetry=a1
              MO Center= -3.4D-27,  5.7D-20, -1.4D+00, r^2= 2.0D-02
   Bfn.  Coefficient  Atom+Function         Bfn.  Coefficient  Atom+Function  
  ----- ------------  ---------------      ----- ------------  ---------------
    16      0.992501   4 N  s                17      0.035967   4 N  s         

 Vector    2  Occ=2.000000D+00  E=-1.004753D+01  Symmetry=b2
              MO Center= -5.8D-19,  6.3D-12, -7.1D-01, r^2= 1.3D+00
   Bfn.  Coefficient  Atom+Function         Bfn.  Coefficient  Atom+Function  
  ----- ------------  ---------------      ----- ------------  ---------------
    11      0.700381   3 C  s                21     -0.700381   5 C  s         
    12      0.030976   3 C  s                22     -0.030976   5 C  s         

 Vector    3  Occ=2.000000D+00  E=-1.004730D+01  Symmetry=a1
              MO Center=  3.8D-24, -6.3D-12, -7.1D-01, r^2= 1.3D+00
   Bfn.  Coefficient  Atom+Function         Bfn.  Coefficient  Atom+Function  
  ----- ------------  ---------------      ----- ------------  ---------------
    11      0.700520   3 C  s                21      0.700520   5 C  s         
    12      0.030560   3 C  s                22      0.030560   5 C  s         

 Vector    4  Occ=2.000000D+00  E=-1.003037D+01  Symmetry=a1
              MO Center=  1.0D-24,  6.0D-14,  1.4D+00, r^2= 3.8D-02
   Bfn.  Coefficient  Atom+Function         Bfn.  Coefficient  Atom+Function  
  ----- ------------  ---------------      ----- ------------  ---------------
     1      0.987699   1 C  s                 6     -0.051706   2 C  s         
    26     -0.051706   6 C  s                 2      0.045679   1 C  s         

 Vector    5  Occ=2.000000D+00  E=-1.002419D+01  Symmetry=b2
              MO Center=  6.7D-20,  6.8D-12,  6.7D-01, r^2= 1.5D+00
   Bfn.  Coefficient  Atom+Function         Bfn.  Coefficient  Atom+Function  
  ----- ------------  ---------------      ----- ------------  ---------------
     6      0.700347   2 C  s                26     -0.700347   6 C  s         
     7      0.031454   2 C  s                27     -0.031454   6 C  s         

 Vector    6  Occ=2.000000D+00  E=-1.002412D+01  Symmetry=a1
              MO Center=  2.1D-24, -6.8D-12,  6.7D-01, r^2= 1.5D+00
   Bfn.  Coefficient  Atom+Function         Bfn.  Coefficient  Atom+Function  
  ----- ------------  ---------------      ----- ------------  ---------------
     6      0.698429   2 C  s                26      0.698429   6 C  s         
     1      0.075041   1 C  s                 7      0.031178   2 C  s         
    27      0.031178   6 C  s         

 Vector    7  Occ=2.000000D+00  E=-9.060991D-01  Symmetry=a1
              MO Center=  2.9D-21,  1.0D-15, -7.9D-01, r^2= 1.3D+00
   Bfn.  Coefficient  Atom+Function         Bfn.  Coefficient  Atom+Function  
  ----- ------------  ---------------      ----- ------------  ---------------
    17      0.545936   4 N  s                12      0.255325   3 C  s         
    22      0.255325   5 C  s                16     -0.172458   4 N  s         
    20      0.165431   4 N  pz                7      0.132246   2 C  s         
    27      0.132246   6 C  s                11     -0.109970   3 C  s         
    21     -0.109970   5 C  s                 2      0.104804   1 C  s         

 Vector    8  Occ=2.000000D+00  E=-7.671822D-01  Symmetry=a1
              MO Center=  7.6D-19, -4.8D-16,  5.9D-01, r^2= 2.1D+00
   Bfn.  Coefficient  Atom+Function         Bfn.  Coefficient  Atom+Function  
  ----- ------------  ---------------      ----- ------------  ---------------
     2      0.430746   1 C  s                17     -0.336095   4 N  s         
     7      0.308270   2 C  s                27      0.308270   6 C  s         
     1     -0.165893   1 C  s                 6     -0.119851   2 C  s         
    26     -0.119851   6 C  s                15      0.113939   3 C  pz        
    25      0.113939   5 C  pz               16      0.099790   4 N  s         

 Vector    9  Occ=2.000000D+00  E=-7.270096D-01  Symmetry=b2
              MO Center=  3.2D-16,  1.5D-14, -1.0D-01, r^2= 2.8D+00
   Bfn.  Coefficient  Atom+Function         Bfn.  Coefficient  Atom+Function  
  ----- ------------  ---------------      ----- ------------  ---------------
    12      0.362778   3 C  s                22     -0.362778   5 C  s         
     7      0.330981   2 C  s                27     -0.330981   6 C  s         
    19      0.160599   4 N  py               11     -0.133914   3 C  s         
    21      0.133914   5 C  s                 4      0.124441   1 C  py        
     6     -0.124607   2 C  s                26      0.124607   6 C  s         

 Vector   10  Occ=2.000000D+00  E=-5.917642D-01  Symmetry=a1
              MO Center=  1.1D-16, -1.2D-14,  3.1D-01, r^2= 3.4D+00
   Bfn.  Coefficient  Atom+Function         Bfn.  Coefficient  Atom+Function  
  ----- ------------  ---------------      ----- ------------  ---------------
     2      0.379319   1 C  s                17      0.287419   4 N  s         
    12     -0.241758   3 C  s                22     -0.241758   5 C  s         
    10      0.178501   2 C  pz               30      0.178501   6 C  pz        
    31      0.174707   7 H  s                 7     -0.152652   2 C  s         
    27     -0.152652   6 C  s                14     -0.151555   3 C  py        

 Vector   11  Occ=2.000000D+00  E=-5.897005D-01  Symmetry=b2
              MO Center= -1.1D-16,  7.4D-15, -1.0D-01, r^2= 3.5D+00
   Bfn.  Coefficient  Atom+Function         Bfn.  Coefficient  Atom+Function  
  ----- ------------  ---------------      ----- ------------  ---------------
     7      0.305798   2 C  s                27     -0.305798   6 C  s         
    19     -0.283902   4 N  py               12     -0.280210   3 C  s         
    22      0.280210   5 C  s                 4      0.222582   1 C  py        
    15      0.167323   3 C  pz               25     -0.167323   5 C  pz        
    32      0.140435   8 H  s                35     -0.140435  11 H  s         

 Vector   12  Occ=2.000000D+00  E=-4.951843D-01  Symmetry=a1
              MO Center=  9.3D-25, -6.9D-15,  3.0D-01, r^2= 3.9D+00
   Bfn.  Coefficient  Atom+Function         Bfn.  Coefficient  Atom+Function  
  ----- ------------  ---------------      ----- ------------  ---------------
     5      0.303841   1 C  pz               31      0.233012   7 H  s         
     9      0.189816   2 C  py               29     -0.189816   6 C  py        
    14      0.186767   3 C  py               24     -0.186767   5 C  py        
    15     -0.185466   3 C  pz               25     -0.185466   5 C  pz        
    33      0.186243   9 H  s                34      0.186243  10 H  s         

 Vector   13  Occ=2.000000D+00  E=-4.374730D-01  Symmetry=a1
              MO Center=  5.7D-25, -3.7D-15,  3.1D-01, r^2= 4.8D+00
   Bfn.  Coefficient  Atom+Function         Bfn.  Coefficient  Atom+Function  
  ----- ------------  ---------------      ----- ------------  ---------------
    32      0.296322   8 H  s                35      0.296322  11 H  s         
     9      0.249493   2 C  py               29     -0.249493   6 C  py        
    17      0.230866   4 N  s                 2     -0.228074   1 C  s         
    33     -0.216914   9 H  s                34     -0.216914  10 H  s         
     7      0.207464   2 C  s                27      0.207464   6 C  s         

 Vector   14  Occ=2.000000D+00  E=-4.334250D-01  Symmetry=b2
              MO Center=  1.1D-16, -1.8D-15, -1.1D-03, r^2= 2.7D+00
   Bfn.  Coefficient  Atom+Function         Bfn.  Coefficient  Atom+Function  
  ----- ------------  ---------------      ----- ------------  ---------------
    19      0.351164   4 N  py                4      0.318197   1 C  py        
    10      0.296707   2 C  pz               30     -0.296707   6 C  pz        
    15     -0.270760   3 C  pz               25      0.270760   5 C  pz        
    14     -0.195709   3 C  py               24     -0.195709   5 C  py        
     9     -0.124192   2 C  py               29     -0.124192   6 C  py        

 Vector   15  Occ=2.000000D+00  E=-3.969196D-01  Symmetry=b2
              MO Center=  1.1D-24, -8.3D-17,  1.1D-02, r^2= 3.8D+00
   Bfn.  Coefficient  Atom+Function         Bfn.  Coefficient  Atom+Function  
  ----- ------------  ---------------      ----- ------------  ---------------
     9      0.276360   2 C  py               29      0.276360   6 C  py        
    14      0.252747   3 C  py               24      0.252747   5 C  py        
    32      0.242874   8 H  s                35     -0.242874  11 H  s         
    33      0.229398   9 H  s                34     -0.229398  10 H  s         
    15     -0.209213   3 C  pz               25      0.209213   5 C  pz        

 Vector   16  Occ=2.000000D+00  E=-3.601552D-01  Symmetry=a1
              MO Center= -6.7D-17,  1.2D-15,  8.1D-01, r^2= 3.1D+00
   Bfn.  Coefficient  Atom+Function         Bfn.  Coefficient  Atom+Function  
  ----- ------------  ---------------      ----- ------------  ---------------
     5      0.463187   1 C  pz               31      0.414671   7 H  s         
    15      0.234284   3 C  pz               25      0.234284   5 C  pz        
    10     -0.221733   2 C  pz               30     -0.221733   6 C  pz        
    20      0.218048   4 N  pz               17     -0.143791   4 N  s         
    33     -0.130143   9 H  s                34     -0.130143  10 H  s         

 Vector   17  Occ=2.000000D+00  E=-3.524373D-01  Symmetry=b1
              MO Center= -1.2D-18, -4.6D-15, -2.5D-01, r^2= 2.4D+00
   Bfn.  Coefficient  Atom+Function         Bfn.  Coefficient  Atom+Function  
  ----- ------------  ---------------      ----- ------------  ---------------
    18      0.404250   4 N  px               13      0.362143   3 C  px        
    23      0.362143   5 C  px                8      0.295425   2 C  px        
    28      0.295425   6 C  px                3      0.281148   1 C  px        

 Vector   18  Occ=2.000000D+00  E=-3.220034D-01  Symmetry=b2
              MO Center= -4.3D-18,  1.7D-16,  2.5D-02, r^2= 4.0D+00
   Bfn.  Coefficient  Atom+Function         Bfn.  Coefficient  Atom+Function  
  ----- ------------  ---------------      ----- ------------  ---------------
     4      0.355160   1 C  py               19     -0.305248   4 N  py        
     9     -0.301196   2 C  py               29     -0.301196   6 C  py        
    14      0.284325   3 C  py               24      0.284325   5 C  py        
    33      0.267472   9 H  s                34     -0.267472  10 H  s         
    32     -0.249049   8 H  s                35      0.249049  11 H  s         

 Vector   19  Occ=2.000000D+00  E=-2.335245D-01  Symmetry=b1
              MO Center= -6.1D-18, -1.7D-14,  1.5D-01, r^2= 2.6D+00
   Bfn.  Coefficient  Atom+Function         Bfn.  Coefficient  Atom+Function  
  ----- ------------  ---------------      ----- ------------  ---------------
     3      0.545156   1 C  px               18     -0.519292   4 N  px        
     8      0.308338   2 C  px               28      0.308338   6 C  px        
    13     -0.212689   3 C  px               23     -0.212689   5 C  px        

 Vector   20  Occ=2.000000D+00  E=-2.198469D-01  Symmetry=a2
              MO Center= -2.3D-16,  2.2D-14, -4.0D-02, r^2= 2.6D+00
   Bfn.  Coefficient  Atom+Function         Bfn.  Coefficient  Atom+Function  
  ----- ------------  ---------------      ----- ------------  ---------------
    13      0.469267   3 C  px               23     -0.469267   5 C  px        
     8      0.452645   2 C  px               28     -0.452645   6 C  px        

 Vector   21  Occ=2.000000D+00  E=-1.793006D-01  Symmetry=a1
              MO Center=  6.5D-18, -9.0D-17, -1.3D+00, r^2= 1.7D+00
   Bfn.  Coefficient  Atom+Function         Bfn.  Coefficient  Atom+Function  
  ----- ------------  ---------------      ----- ------------  ---------------
    20      0.756690   4 N  pz               17     -0.539156   4 N  s         
    10      0.214486   2 C  pz               30      0.214486   6 C  pz        
    15     -0.155607   3 C  pz               25     -0.155607   5 C  pz        
    33      0.151275   9 H  s                34      0.151275  10 H  s         
    12      0.119196   3 C  s                22      0.119196   5 C  s         

 Vector   22  Occ=0.000000D+00  E= 6.017639D-02  Symmetry=b1
              MO Center=  1.8D-15,  1.7D-15, -5.4D-02, r^2= 2.6D+00
   Bfn.  Coefficient  Atom+Function         Bfn.  Coefficient  Atom+Function  
  ----- ------------  ---------------      ----- ------------  ---------------
     3      0.653549   1 C  px               18      0.647657   4 N  px        
    13     -0.356394   3 C  px               23     -0.356394   5 C  px        
     8     -0.293109   2 C  px               28     -0.293109   6 C  px        

 Vector   23  Occ=0.000000D+00  E= 7.179077D-02  Symmetry=a2
              MO Center= -2.3D-17, -2.6D-15, -2.6D-03, r^2= 2.6D+00
   Bfn.  Coefficient  Atom+Function         Bfn.  Coefficient  Atom+Function  
  ----- ------------  ---------------      ----- ------------  ---------------
     8      0.577236   2 C  px               28     -0.577236   6 C  px        
    13     -0.567305   3 C  px               23      0.567305   5 C  px        

 Vector   24  Occ=0.000000D+00  E= 2.335730D-01  Symmetry=b1
              MO Center= -2.6D-15, -5.0D-16,  7.5D-02, r^2= 2.6D+00
   Bfn.  Coefficient  Atom+Function         Bfn.  Coefficient  Atom+Function  
  ----- ------------  ---------------      ----- ------------  ---------------
     3      0.546176   1 C  px                8     -0.544603   2 C  px        
    28     -0.544603   6 C  px               13      0.498235   3 C  px        
    23      0.498235   5 C  px               18     -0.480031   4 N  px        

 Vector   25  Occ=0.000000D+00  E= 3.490062D-01  Symmetry=a1
              MO Center= -1.5D-17, -3.3D-16,  1.1D+00, r^2= 4.2D+00
   Bfn.  Coefficient  Atom+Function         Bfn.  Coefficient  Atom+Function  
  ----- ------------  ---------------      ----- ------------  ---------------
    31      0.740689   7 H  s                32      0.608054   8 H  s         
    35      0.608054  11 H  s                 5     -0.480306   1 C  pz        
     2     -0.417252   1 C  s                 7     -0.321255   2 C  s         
    27     -0.321255   6 C  s                33      0.316894   9 H  s         
    34      0.316894  10 H  s                 9     -0.299885   2 C  py        

 Vector   26  Occ=0.000000D+00  E= 3.829382D-01  Symmetry=b2
              MO Center=  3.7D-18, -2.4D-15, -7.4D-02, r^2= 4.6D+00
   Bfn.  Coefficient  Atom+Function         Bfn.  Coefficient  Atom+Function  
  ----- ------------  ---------------      ----- ------------  ---------------
    32     -0.562855   8 H  s                35      0.562855  11 H  s         
    33     -0.533385   9 H  s                34      0.533385  10 H  s         
    14      0.521492   3 C  py               24      0.521492   5 C  py        
     9      0.471184   2 C  py               29      0.471184   6 C  py        
    19      0.395429   4 N  py                4      0.315615   1 C  py        

 Vector   27  Occ=0.000000D+00  E= 4.131242D-01  Symmetry=a1
              MO Center=  8.4D-16,  6.7D-15, -1.1D+00, r^2= 2.9D+00
   Bfn.  Coefficient  Atom+Function         Bfn.  Coefficient  Atom+Function  
  ----- ------------  ---------------      ----- ------------  ---------------
    12      0.893691   3 C  s                22      0.893691   5 C  s         
    17     -0.858936   4 N  s                33     -0.656534   9 H  s         
    34     -0.656534  10 H  s                20     -0.450604   4 N  pz        
    15     -0.432551   3 C  pz               25     -0.432551   5 C  pz        
     2     -0.172740   1 C  s                11     -0.146223   3 C  s         

 Vector   28  Occ=0.000000D+00  E= 4.541075D-01  Symmetry=a1
              MO Center= -5.2D-16,  1.7D-16,  9.7D-01, r^2= 2.9D+00
   Bfn.  Coefficient  Atom+Function         Bfn.  Coefficient  Atom+Function  
  ----- ------------  ---------------      ----- ------------  ---------------
     2      1.266003   1 C  s                 7     -0.864421   2 C  s         
    27     -0.864421   6 C  s                31     -0.501462   7 H  s         
    32      0.470947   8 H  s                35      0.470947  11 H  s         
    10     -0.325308   2 C  pz               30     -0.325308   6 C  pz        
    14      0.283306   3 C  py               24     -0.283306   5 C  py        

 Vector   29  Occ=0.000000D+00  E= 4.552653D-01  Symmetry=b2
              MO Center= -8.0D-17, -9.0D-15, -1.8D-01, r^2= 3.4D+00
   Bfn.  Coefficient  Atom+Function         Bfn.  Coefficient  Atom+Function  
  ----- ------------  ---------------      ----- ------------  ---------------
    12      0.953089   3 C  s                22     -0.953089   5 C  s         
     7     -0.864670   2 C  s                27      0.864670   6 C  s         
    33     -0.459742   9 H  s                34      0.459742  10 H  s         
    19     -0.432181   4 N  py                4      0.421804   1 C  py        
    32      0.319635   8 H  s                35     -0.319635  11 H  s         

 Vector   30  Occ=0.000000D+00  E= 4.937214D-01  Symmetry=a1
              MO Center=  4.4D-16,  4.1D-15,  4.5D-01, r^2= 3.4D+00
   Bfn.  Coefficient  Atom+Function         Bfn.  Coefficient  Atom+Function  
  ----- ------------  ---------------      ----- ------------  ---------------
     5      0.747630   1 C  pz               31     -0.716831   7 H  s         
    20     -0.458977   4 N  pz               14     -0.437037   3 C  py        
    24      0.437037   5 C  py               15      0.373855   3 C  pz        
    25      0.373855   5 C  pz               17     -0.365700   4 N  s         
    33      0.354797   9 H  s                34      0.354797  10 H  s         

 Vector   31  Occ=0.000000D+00  E= 5.705765D-01  Symmetry=b2
              MO Center= -2.2D-17,  5.6D-17,  2.5D-01, r^2= 3.5D+00
   Bfn.  Coefficient  Atom+Function         Bfn.  Coefficient  Atom+Function  
  ----- ------------  ---------------      ----- ------------  ---------------
    19      0.634413   4 N  py               32      0.604415   8 H  s         
    35     -0.604415  11 H  s                10     -0.555555   2 C  pz        
    30      0.555555   6 C  pz               14      0.477529   3 C  py        
    24      0.477529   5 C  py               12     -0.449259   3 C  s         
    22      0.449259   5 C  s                 4      0.389853   1 C  py        

 Vector   32  Occ=0.000000D+00  E= 5.888709D-01  Symmetry=a1
              MO Center=  7.9D-18, -4.9D-15,  1.1D-01, r^2= 3.1D+00
   Bfn.  Coefficient  Atom+Function         Bfn.  Coefficient  Atom+Function  
  ----- ------------  ---------------      ----- ------------  ---------------
     2      0.648934   1 C  s                10     -0.616970   2 C  pz        
    30     -0.616970   6 C  pz               15     -0.576098   3 C  pz        
    25     -0.576098   5 C  pz               17     -0.525805   4 N  s         
    14     -0.482909   3 C  py               24      0.482909   5 C  py        
    31     -0.404035   7 H  s                 7      0.387239   2 C  s         

 Vector   33  Occ=0.000000D+00  E= 5.973233D-01  Symmetry=b2
              MO Center=  3.2D-17,  4.4D-15, -5.2D-02, r^2= 3.2D+00
   Bfn.  Coefficient  Atom+Function         Bfn.  Coefficient  Atom+Function  
  ----- ------------  ---------------      ----- ------------  ---------------
     4      0.816009   1 C  py                7     -0.584669   2 C  s         
    27      0.584669   6 C  s                15      0.581096   3 C  pz        
    25     -0.581096   5 C  pz               33      0.523496   9 H  s         
    34     -0.523496  10 H  s                 9      0.507921   2 C  py        
    29      0.507921   6 C  py               19      0.383318   4 N  py        

 Vector   34  Occ=0.000000D+00  E= 7.458333D-01  Symmetry=b2
              MO Center=  8.2D-19,  1.3D-15, -4.3D-02, r^2= 2.6D+00
   Bfn.  Coefficient  Atom+Function         Bfn.  Coefficient  Atom+Function  
  ----- ------------  ---------------      ----- ------------  ---------------
     4      0.722443   1 C  py               19     -0.695828   4 N  py        
    10     -0.685491   2 C  pz               15     -0.687938   3 C  pz        
    25      0.687938   5 C  pz               30      0.685491   6 C  pz        
    14     -0.351590   3 C  py               24     -0.351590   5 C  py        
     9      0.334924   2 C  py               29      0.334924   6 C  py        

 Vector   35  Occ=0.000000D+00  E= 7.694046D-01  Symmetry=a1
              MO Center=  2.1D-19,  1.9D-16,  4.1D-01, r^2= 2.2D+00
   Bfn.  Coefficient  Atom+Function         Bfn.  Coefficient  Atom+Function  
  ----- ------------  ---------------      ----- ------------  ---------------
     5      0.817391   1 C  pz                9     -0.723459   2 C  py        
    29      0.723459   6 C  py                2     -0.574765   1 C  s         
     7      0.491125   2 C  s                27      0.491125   6 C  s         
    14      0.425120   3 C  py               24     -0.425120   5 C  py        
    12     -0.375381   3 C  s                17      0.375708   4 N  s         


 center of mass
 --------------
 x =   0.00000000 y =  -0.00000000 z =  -0.05287820

 moments of inertia (a.u.)
 ------------------
         609.110291013031           0.000000000000           0.000000000000
           0.000000000000         308.483093812908           0.000000000000
           0.000000000000           0.000000000000         300.627197200123

     Multipole analysis of the density
     ---------------------------------

     L   x y z        total         alpha         beta         nuclear
     -   - - -        -----         -----         ----         -------
     0   0 0 0     -0.000000    -21.000000    -21.000000     42.000000

     1   1 0 0      0.000000     -0.000000     -0.000000      0.000000
     1   0 1 0     -0.000000      0.000000      0.000000     -0.000000
     1   0 0 1      0.946483      0.473241      0.473241     -0.000000

     2   2 0 0    -25.053386    -12.526693    -12.526693      0.000000
     2   1 1 0      0.000000      0.000000      0.000000     -0.000000
     2   1 0 1     -0.000000      0.000000      0.000000     -0.000000
     2   0 2 0    -20.725185   -101.240857   -101.240857    181.756528
     2   0 1 1      0.000000      0.000000      0.000000     -0.000000
     2   0 0 2    -25.445108   -100.785554   -100.785554    176.126001


 Parallel integral file used       4 records with       0 large values


            General Information
            -------------------
          SCF calculation type: DFT
          Wavefunction type:  closed shell.
          No. of atoms     :    11
          No. of electrons :    42
           Alpha electrons :    21
            Beta electrons :    21
          Charge           :     0
          Spin multiplicity:     1
          Use of symmetry is: on ; symmetry adaption is: on 
          Maximum number of iterations: 199
          AO basis - number of functions:    35
                     number of shells:    23
          Convergence on energy requested:  1.00D-06
          Convergence on density requested:  1.00D-05
          Convergence on gradient requested:  5.00D-04

              XC Information
              --------------
                         B3LYP Method XC Potential
                     Hartree-Fock (Exact) Exchange  0.200          
                        Slater Exchange Functional  0.800 local    
                    Becke 1988 Exchange Functional  0.720 non-local
              Lee-Yang-Parr Correlation Functional  0.810          
                  VWN I RPA Correlation Functional  0.190 local    

             Grid Information
             ----------------
          Grid used for XC integration:  medium    
          Radial quadrature: Mura-Knowles        
          Angular quadrature: Lebedev. 
          Tag              B.-S. Rad. Rad. Pts. Rad. Cut. Ang. Pts.
          ---              ---------- --------- --------- ---------
          C                   0.70       49          10.0       434
          N                   0.65       49          10.0       434
          H                   0.35       45          11.0       434
          Grid pruning is: on 
          Number of quadrature shells:   331
          Spatial weights used:  Erf1

          Convergence Information
          -----------------------
          Convergence aids based upon iterative change in 
          total energy or number of iterations. 
          Levelshifting, if invoked, occurs when the 
          HOMO/LUMO gap drops below (HL_TOL):  1.00D-02
          DIIS, if invoked, will attempt to extrapolate 
          using up to (NFOCK): 10 stored Fock matrices.

                    Damping( 0%)  Levelshifting(0.5)       DIIS
                  --------------- ------------------- ---------------
          dE  on:    start            ASAP                start   
          dE off:    2 iters        199 iters           199 iters 


      Screening Tolerance Information
      -------------------------------
          Density screening/tol_rho:  1.00D-10
          AO Gaussian exp screening on grid/accAOfunc:  14
          CD Gaussian exp screening on grid/accCDfunc:  20
          XC Gaussian exp screening on grid/accXCfunc:  20
          Schwarz screening/accCoul:  1.00D-08



                            NWChem DFT Gradient Module
                            --------------------------


                     Molecular optimization: STO-3G basis set



  charge          =   0.00
  wavefunction    = closed shell

  Using symmetry


                         DFT ENERGY GRADIENTS

    atom               coordinates                        gradient
                 x          y          z           x          y          z
   1 C       0.000000   0.000000   2.596466    0.000000   0.000000  -0.013754
   2 C       0.000000   2.268505   1.268636    0.000000  -0.007561  -0.010852
   3 C       0.000000   2.172198  -1.348386    0.000000  -0.015577  -0.001288
   4 N       0.000000   0.000000  -2.689436    0.000000   0.000000   0.049224
   5 C       0.000000  -2.172198  -1.348386    0.000000   0.015577  -0.001288
   6 C       0.000000  -2.268505   1.268636    0.000000   0.007561  -0.010852
   7 H       0.000000   0.000000   4.648937    0.000000   0.000000  -0.010892
   8 H       0.000000   4.067994   2.247413    0.000000  -0.010097  -0.005874
   9 H       0.000000   3.891316  -2.469756    0.000000  -0.013402   0.005725
  10 H       0.000000  -3.891316  -2.469756    0.000000   0.013402   0.005725
  11 H       0.000000  -4.067994   2.247413    0.000000   0.010097  -0.005874

                 ----------------------------------------
                 |  Time  |  1-e(secs)   |  2-e(secs)   |
                 ----------------------------------------
                 |  CPU   |       0.04   |       0.11   |
                 ----------------------------------------
                 |  WALL  |       0.04   |       0.10   |
                 ----------------------------------------

@ Step       Energy      Delta E   Gmax     Grms     Xrms     Xmax   Walltime
@ ---- ---------------- -------- -------- -------- -------- -------- --------
@    0    -245.18430469  0.0D+00  0.04922  0.01137  0.00000  0.00000      4.9
                                                                    


                                 NWChem DFT Module
                                 -----------------


                     Molecular optimization: STO-3G basis set




 Summary of "ao basis" -> "ao basis" (cartesian)
 ------------------------------------------------------------------------------
       Tag                 Description            Shells   Functions and Types
 ---------------- ------------------------------  ------  ---------------------
 C                           sto-3g                  3        5   2s1p
 N                           sto-3g                  3        5   2s1p
 H                           sto-3g                  1        1   1s


      Symmetry analysis of basis
      --------------------------

        a1         17
        a2          2
        b1          4
        b2         12


 solvent parameters
 solvname_short: h2o     
 solvname_long:  water                              
 dielec:       78.4000
 dielecinf:     1.7769

          ---------------
          -cosmo- solvent
          ---------------
 Cosmo: York-Karplus, doi: 10.1021/jp992097l
 dielectric constant -eps-     =  78.40
 screen = (eps-1)/(eps    )    =   0.98724
 surface charge correction     = lagrangian
 -lineq- algorithm             =   0
 -bem- low  level              =   2
 -bem- from -octahedral-
 gaussian surface charge width =   0.98000
 degree of switching           =   1.00000
 switching function tolerance  =   0.00010
 atomic radii = 
 --------------
    1  6.000  2.000
    2  6.000  2.000
    3  6.000  2.000
    4  7.000  1.830
    5  6.000  2.000
    6  6.000  2.000
    7  1.000  1.300
    8  1.000  1.300
    9  1.000  1.300
   10  1.000  1.300
   11  1.000  1.300

 solvent accessible surface
 --------------------------

 ---------- ATOMIC COORDINATES (A.U.) ------------ VDWR(ANG.) --
     1    0.00000000    0.00000000    2.62821515     2.000
     2    0.00000000    2.27704204    1.27927661     2.000
     3    0.00000000    2.17462306   -1.36495893     2.000
     4    0.00000000    0.00000000   -2.82361460     1.830
     5    0.00000000   -2.17462306   -1.36495893     2.000
     6    0.00000000   -2.27704204    1.27927661     2.000
     7    0.00000000    0.00000000    4.69877666     1.300
     8    0.00000000    4.10101393    2.25847201     1.300
     9    0.00000000    3.95578765   -2.44858742     1.300
    10    0.00000000   -3.95578765   -2.44858742     1.300
    11    0.00000000   -4.10101393    2.25847201     1.300
 number of segments per atom =         32
 number of   points per atom =         32
 atom (   nspa,  nppa )
 ----------------------
    1 (     12,     0 )       0
    2 (     14,     0 )       0
    3 (     14,     0 )       0
    4 (     16,     0 )       0
    5 (     14,     0 )       0
    6 (     14,     0 )       0
    7 (     16,     0 )       0
    8 (     16,     0 )       0
    9 (     16,     0 )       0
   10 (     16,     0 )       0
   11 (     16,     0 )       0
 number of -cosmo- surface points =      164
 molecular surface =    133.952 angstrom**2
 molecular volume  =     81.237 angstrom**3
 G(cav/disp)       =      1.530 kcal/mol
 ...... end of -cosmo- initialization ......


  Caching 1-el integrals 

            General Information
            -------------------
          SCF calculation type: DFT
          Wavefunction type:  closed shell.
          No. of atoms     :    11
          No. of electrons :    42
           Alpha electrons :    21
            Beta electrons :    21
          Charge           :     0
          Spin multiplicity:     1
          Use of symmetry is: on ; symmetry adaption is: on 
          Maximum number of iterations: 199
          AO basis - number of functions:    35
                     number of shells:    23
          Convergence on energy requested:  1.00D-06
          Convergence on density requested:  1.00D-05
          Convergence on gradient requested:  5.00D-04

              XC Information
              --------------
                         B3LYP Method XC Potential
                     Hartree-Fock (Exact) Exchange  0.200          
                        Slater Exchange Functional  0.800 local    
                    Becke 1988 Exchange Functional  0.720 non-local
              Lee-Yang-Parr Correlation Functional  0.810          
                  VWN I RPA Correlation Functional  0.190 local    

             Grid Information
             ----------------
          Grid used for XC integration:  medium    
          Radial quadrature: Mura-Knowles        
          Angular quadrature: Lebedev. 
          Tag              B.-S. Rad. Rad. Pts. Rad. Cut. Ang. Pts.
          ---              ---------- --------- --------- ---------
          C                   0.70       49          10.0       434
          N                   0.65       49          10.0       434
          H                   0.35       45          11.0       434
          Grid pruning is: on 
          Number of quadrature shells:   331
          Spatial weights used:  Erf1

          Convergence Information
          -----------------------
          Convergence aids based upon iterative change in 
          total energy or number of iterations. 
          Levelshifting, if invoked, occurs when the 
          HOMO/LUMO gap drops below (HL_TOL):  1.00D-02
          DIIS, if invoked, will attempt to extrapolate 
          using up to (NFOCK): 10 stored Fock matrices.

                    Damping( 0%)  Levelshifting(0.5)       DIIS
                  --------------- ------------------- ---------------
          dE  on:    start            ASAP                start   
          dE off:    2 iters        199 iters           199 iters 


      Screening Tolerance Information
      -------------------------------
          Density screening/tol_rho:  1.00D-10
          AO Gaussian exp screening on grid/accAOfunc:  14
          CD Gaussian exp screening on grid/accCDfunc:  20
          XC Gaussian exp screening on grid/accXCfunc:  20
          Schwarz screening/accCoul:  1.00D-08


 Loading old vectors from job with title :

Molecular optimization: STO-3G basis set


      Symmetry analysis of molecular orbitals - initial
      -------------------------------------------------

  Numbering of irreducible representations: 

     1 a1          2 a2          3 b1          4 b2      

  Orbital symmetries:

     1 a1          2 b2          3 a1          4 a1          5 b2      
     6 a1          7 a1          8 a1          9 b2         10 a1      
    11 b2         12 a1         13 a1         14 b2         15 b2      
    16 a1         17 b1         18 b2         19 b1         20 a2      
    21 a1         22 b1         23 a2         24 b1         25 a1      
    26 b2         27 a1         28 a1         29 b2         30 a1      
    31 b2      

   Time after variat. SCF:      5.3
   Time prior to 1st pass:      5.3

 #quartets = 1.861D+04 #integrals = 6.137D+04 #direct =  0.0% #cached =100.0%


 Integral file          = ./pyridine.aoints.0
 Record size in doubles =  65536        No. of integs per rec  =  43688
 Max. records in memory =      2        Max. records in file   =  95903
 No. of bits per label  =      8        No. of bits per value  =     64


File balance: exchanges=     0  moved=     0  time=   0.0


 Grid_pts file          = ./pyridine.gridpts.0
 Record size in doubles =  12289        No. of grid_pts per rec  =   3070
 Max. records in memory =     14        Max. recs in file   =    511428


           Memory utilization after 1st SCF pass: 
           Heap Space remaining (MW):      133.91           133910250
          Stack Space remaining (MW):      134.22           134217252

   convergence    iter        energy       DeltaE   RMS-Dens  Diis-err    time
 ---------------- ----- ----------------- --------- --------- ---------  ------
     COSMO gas phase
 d= 0,ls=0.0,diis     1   -245.1824630666 -4.48D+02  6.90D-03  1.04D-02     6.3
 d= 0,ls=0.0,diis     2   -245.1834492168 -9.86D-04  3.79D-03  8.83D-03     6.4
 d= 0,ls=0.0,diis     3   -245.1846535292 -1.20D-03  1.37D-03  2.33D-03     6.5
 d= 0,ls=0.0,diis     4   -245.1850462609 -3.93D-04  2.10D-04  3.50D-05     6.6
 d= 0,ls=0.0,diis     5   -245.1850520923 -5.83D-06  5.41D-05  4.18D-06     6.7
 d= 0,ls=0.0,diis     6   -245.1850526983 -6.06D-07  1.11D-05  5.41D-08     6.8
 d= 0,ls=0.0,diis     7   -245.1850527081 -9.80D-09  3.09D-06  1.48D-08     6.9

           Memory utilization after 1st SCF pass: 
           Heap Space remaining (MW):      133.91           133910074
          Stack Space remaining (MW):      134.22           134217252

   convergence    iter        energy       DeltaE   RMS-Dens  Diis-err    time
 ---------------- ----- ----------------- --------- --------- ---------  ------
     COSMO solvation phase
 d= 0,ls=0.0,diis     1   -245.1894010114 -4.35D-03  3.23D-03  1.86D-03     7.1
 d= 0,ls=0.0,diis     2   -245.1893541176  4.69D-05  1.70D-03  2.82D-03     7.3
 d= 0,ls=0.0,diis     3   -245.1898743459 -5.20D-04  2.88D-04  7.03D-05     7.5
 d= 0,ls=0.0,diis     4   -245.1898857146 -1.14D-05  7.46D-05  5.57D-06     7.7
 d= 0,ls=0.0,diis     5   -245.1898863744 -6.60D-07  2.83D-05  1.07D-06     8.0
 d= 0,ls=0.0,diis     6   -245.1898865520 -1.78D-07  1.25D-06  2.06D-09     8.2


         Total DFT energy =     -245.189886551950
      One electron energy =     -733.786317453866
           Coulomb energy =      321.073075436321
    Exchange-Corr. energy =      -35.805212456772
 Nuclear repulsion energy =      203.136640598526

             COSMO energy =        0.191927323840

 Numeric. integr. density =       41.999995857993

     Total iterative time =      2.9s


                                   COSMO solvation results
                                   -----------------------

                 gas phase energy =      -245.185052708093
                 sol phase energy =      -245.189886551950
 (electrostatic) solvation energy =         0.004833843857 (    3.03 kcal/mol)

                  Occupations of the irreducible representations
                  ----------------------------------------------

                     irrep           alpha         beta
                     --------     --------     --------
                     a1               11.0         11.0
                     a2                1.0          1.0
                     b1                2.0          2.0
                     b2                7.0          7.0


                       DFT Final Molecular Orbital Analysis
                       ------------------------------------

[...]

 Vector   83  Occ=0.000000D+00  E= 1.084678D+00  Symmetry=a1
              MO Center=  6.4D-18, -3.7D-13,  2.6D-01, r^2= 6.8D+00
   Bfn.  Coefficient  Atom+Function         Bfn.  Coefficient  Atom+Function  
  ----- ------------  ---------------      ----- ------------  ---------------
    36     -8.213546   3 C  s                62     -8.213546   5 C  s         
    10      7.563363   1 C  s                23      3.894784   2 C  s         
    75      3.894784   6 C  s                39     -3.474681   3 C  pz        
    65     -3.474681   5 C  pz                6     -3.010797   1 C  s         
    13     -2.725507   1 C  pz               26     -2.720102   2 C  pz        

 Vector   84  Occ=0.000000D+00  E= 1.155208D+00  Symmetry=a1
              MO Center=  4.7D-19, -8.1D-14, -1.2D-01, r^2= 6.8D+00
   Bfn.  Coefficient  Atom+Function         Bfn.  Coefficient  Atom+Function  
  ----- ------------  ---------------      ----- ------------  ---------------
    10     12.411858   1 C  s                25      3.123262   2 C  py        
    77     -3.123262   6 C  py               49     -2.371828   4 N  s         
    39     -2.085210   3 C  pz               65     -2.085210   5 C  pz        
    23     -1.859052   2 C  s                75     -1.859052   6 C  s         
    32      1.796398   3 C  s                58      1.796398   5 C  s         

 Vector   85  Occ=0.000000D+00  E= 1.192354D+00  Symmetry=b2
              MO Center=  3.1D-17, -9.5D-13,  6.7D-01, r^2= 5.8D+00
   Bfn.  Coefficient  Atom+Function         Bfn.  Coefficient  Atom+Function  
  ----- ------------  ---------------      ----- ------------  ---------------
    23     19.898482   2 C  s                75    -19.898482   6 C  s         
    12    -11.341211   1 C  py               25     -6.477354   2 C  py        
    77     -6.477354   6 C  py               36     -5.930998   3 C  s         
    62      5.930998   5 C  s                26      5.018640   2 C  pz        
    78     -5.018640   6 C  pz               19     -4.889185   2 C  s         

 Vector   86  Occ=0.000000D+00  E= 1.197789D+00  Symmetry=a1
              MO Center= -1.8D-16, -8.6D-12, -2.7D-01, r^2= 6.0D+00
   Bfn.  Coefficient  Atom+Function         Bfn.  Coefficient  Atom+Function  
  ----- ------------  ---------------      ----- ------------  ---------------
    10     34.499347   1 C  s                23    -27.395640   2 C  s         
    75    -27.395640   6 C  s                36     10.425324   3 C  s         
    62     10.425324   5 C  s                13     -8.393202   1 C  pz        
    25      6.219725   2 C  py               77     -6.219725   6 C  py        
    49     -4.097540   4 N  s                32      3.932507   3 C  s         

 Vector   87  Occ=0.000000D+00  E= 1.235931D+00  Symmetry=b2
              MO Center= -4.1D-17,  9.2D-12, -9.0D-01, r^2= 5.7D+00
   Bfn.  Coefficient  Atom+Function         Bfn.  Coefficient  Atom+Function  
  ----- ------------  ---------------      ----- ------------  ---------------
    36     21.918825   3 C  s                62    -21.918825   5 C  s         
    23    -13.988650   2 C  s                75     13.988650   6 C  s         
    26     10.347106   2 C  pz               78    -10.347106   6 C  pz        
    39      8.514865   3 C  pz               65     -8.514865   5 C  pz        
    12     -7.631302   1 C  py               32     -4.899326   3 C  s         

 Vector   88  Occ=0.000000D+00  E= 1.241595D+00  Symmetry=a1
              MO Center=  5.0D-17, -8.6D-13, -3.3D-01, r^2= 6.2D+00
   Bfn.  Coefficient  Atom+Function         Bfn.  Coefficient  Atom+Function  
  ----- ------------  ---------------      ----- ------------  ---------------
    10     12.972886   1 C  s                23    -12.086505   2 C  s         
    75    -12.086505   6 C  s                36      8.319365   3 C  s         
    62      8.319365   5 C  s                49     -5.925374   4 N  s         
    13     -5.385608   1 C  pz               32      3.766731   3 C  s         
    58      3.766731   5 C  s                81      1.967501   7 H  s         

 Vector   89  Occ=0.000000D+00  E= 1.267283D+00  Symmetry=a1
              MO Center=  9.2D-20,  1.6D-12,  8.9D-01, r^2= 5.5D+00
   Bfn.  Coefficient  Atom+Function         Bfn.  Coefficient  Atom+Function  
  ----- ------------  ---------------      ----- ------------  ---------------
    10     29.025963   1 C  s                23    -20.413418   2 C  s         
    75    -20.413418   6 C  s                36      7.010554   3 C  s         
    62      7.010554   5 C  s                13     -5.176033   1 C  pz        
     6     -3.983906   1 C  s                25      3.586816   2 C  py        
    77     -3.586816   6 C  py               19      3.226153   2 C  s         

 Vector   90  Occ=0.000000D+00  E= 1.289752D+00  Symmetry=b2
              MO Center=  6.6D-18, -2.1D-12,  1.5D-02, r^2= 5.8D+00
   Bfn.  Coefficient  Atom+Function         Bfn.  Coefficient  Atom+Function  
  ----- ------------  ---------------      ----- ------------  ---------------
    23      3.765014   2 C  s                75     -3.765014   6 C  s         
    47      2.645606   4 N  py               36      2.594744   3 C  s         
    62     -2.594744   5 C  s                12     -2.250891   1 C  py        
    51     -2.164705   4 N  py               39     -1.924030   3 C  pz        
    65      1.924030   5 C  pz               21     -1.779604   2 C  py        

 Vector   91  Occ=0.000000D+00  E= 1.472494D+00  Symmetry=a1
              MO Center=  2.8D-18, -5.7D-14,  1.9D-01, r^2= 4.7D+00
   Bfn.  Coefficient  Atom+Function         Bfn.  Coefficient  Atom+Function  
  ----- ------------  ---------------      ----- ------------  ---------------
    10      7.851949   1 C  s                23     -5.704815   2 C  s         
    75     -5.704815   6 C  s                 6     -5.582047   1 C  s         
    19      5.152026   2 C  s                71      5.152026   6 C  s         
     9      5.005492   1 C  pz               49      3.217283   4 N  s         
    21     -2.707115   2 C  py               32     -2.701157   3 C  s         

 Vector   92  Occ=0.000000D+00  E= 1.496031D+00  Symmetry=b2
              MO Center= -1.6D-17,  5.0D-13, -5.7D-01, r^2= 4.6D+00
   Bfn.  Coefficient  Atom+Function         Bfn.  Coefficient  Atom+Function  
  ----- ------------  ---------------      ----- ------------  ---------------
    19      3.127841   2 C  s                71     -3.127841   6 C  s         
    35     -2.751933   3 C  pz               61      2.751933   5 C  pz        
    34      2.331464   3 C  py               60      2.331464   5 C  py        
    21     -2.304832   2 C  py               73     -2.304832   6 C  py        
    32     -2.080626   3 C  s                58      2.080626   5 C  s         

 Vector   93  Occ=0.000000D+00  E= 1.876481D+00  Symmetry=a1
              MO Center=  2.5D-18,  6.9D-14, -4.0D-01, r^2= 4.1D+00
   Bfn.  Coefficient  Atom+Function         Bfn.  Coefficient  Atom+Function  
  ----- ------------  ---------------      ----- ------------  ---------------
    10     11.383115   1 C  s                23     -9.924890   2 C  s         
    75     -9.924890   6 C  s                 6      9.826037   1 C  s         
    45     -9.341566   4 N  s                19     -8.225864   2 C  s         
    71     -8.225864   6 C  s                32      7.560579   3 C  s         
    58      7.560579   5 C  s                 9     -6.264378   1 C  pz        


 center of mass
 --------------
 x =   0.00000000 y =   0.00000000 z =  -0.05452363

 moments of inertia (a.u.)
 ------------------
         618.268437276467           0.000000000000           0.000000000000
           0.000000000000         312.699404583857           0.000000000000
           0.000000000000           0.000000000000         305.569032692609

     Multipole analysis of the density
     ---------------------------------

     L   x y z        total         alpha         beta         nuclear
     -   - - -        -----         -----         ----         -------
     0   0 0 0     -0.000000    -21.000000    -21.000000     42.000000

     1   1 0 0     -0.000000     -0.000000     -0.000000      0.000000
     1   0 1 0     -0.000000     -0.000000     -0.000000      0.000000
     1   0 0 1      1.517944      0.788903      0.788903     -0.059863

     2   2 0 0    -28.797372    -14.398686    -14.398686      0.000000
     2   1 1 0     -0.000000     -0.000000     -0.000000      0.000000
     2   1 0 1      0.000000      0.000000      0.000000      0.000000
     2   0 2 0    -20.714719   -102.672562   -102.672562    184.630405
     2   0 1 1     -0.000000     -0.000000     -0.000000      0.000000
     2   0 0 2    -28.511223   -103.439948   -103.439948    178.368672


 Parallel integral file used      67 records with       0 large values


          -------------
          Dipole Moment
          -------------

 Center of charge (in au) is the expansion point
         X =       0.0000000 Y =       0.0000000 Z =      -0.0014253

   Dipole moment        1.5179435717 A.U.
             DMX       -0.0000000000 DMXEFC        0.0000000000
             DMY       -0.0000000000 DMYEFC       -0.0000000000
             DMZ        1.5179435717 DMZEFC        0.0000000000
   -EFC- dipole         0.0000000000 A.U.
   Total dipole         1.5179435717 A.U.

   Dipole moment        3.8582568748 Debye(s)
             DMX       -0.0000000000 DMXEFC        0.0000000000
             DMY       -0.0000000000 DMYEFC       -0.0000000000
             DMZ        3.8582568748 DMZEFC        0.0000000000
   -EFC- dipole         0.0000000000 DEBYE(S)
   Total dipole         3.8582568748 DEBYE(S)

 1 a.u. = 2.541766 Debyes 


          ----------------------------
          Mulliken population analysis
          ----------------------------

 Total      S,P,D,... shell population
 --------------------------------
    Atom          S        P
 --------------------------------------------------------------------------------------
     1 C      3.31154   3.08228
     2 C      2.86487   2.99861
     3 C      3.46458   2.93978
     4 N      3.81765   3.50105
     5 C      3.46458   2.93978
     6 C      2.86487   2.99861
     7 H      0.75302   0.00000
     8 H      0.74511   0.00000
     9 H      0.75427   0.00000
    10 H      0.75427   0.00000
    11 H      0.74511   0.00000

          ----- Total      gross population on atoms ----

              1  C    6.0     6.39382
              2  C    6.0     5.86348
              3  C    6.0     6.40437
              4  N    7.0     7.31870
              5  C    6.0     6.40437
              6  C    6.0     5.86348
              7  H    1.0     0.75302
              8  H    1.0     0.74511
              9  H    1.0     0.75427
             10  H    1.0     0.75427
             11  H    1.0     0.74511

          ----- Bond indices -----
  1- 1   0.00000  1- 2   1.56670  1- 3   0.21248  1- 4   0.00441  1- 5   0.21248  1- 6   1.56670  1- 7   0.76517  1- 8   0.04237
  2- 1   1.56670  2- 2   0.00000  2- 3   1.43902  2- 4  -0.03192  2- 5   0.00345  2- 6  -0.11995  2- 7   0.06350  2- 8   0.77832
  3- 1   0.21248  3- 2   1.43902  3- 3   0.00000  3- 4   1.15895  3- 5   0.29239  3- 6   0.00345  3- 7   0.00105  3- 8   0.04298
  4- 1   0.00441  4- 2  -0.03192  4- 3   1.15895  4- 4   0.00000  4- 5   1.15895  4- 6  -0.03192  4- 7   0.00023  4- 8   0.01601
  5- 1   0.21248  5- 2   0.00345  5- 3   0.29239  5- 4   1.15895  5- 5   0.00000  5- 6   1.43902  5- 7   0.00105  5- 8  -0.00390
  6- 1   1.56670  6- 2  -0.11995  6- 3   0.00345  6- 4  -0.03192  6- 5   1.43902  6- 6   0.00000  6- 7   0.06350  6- 8   0.00508
  7- 1   0.76517  7- 2   0.06350  7- 3   0.00105  7- 4   0.00023  7- 5   0.00105  7- 6   0.06350  7- 7   0.00000  7- 8   0.00994
  8- 1   0.04237  8- 2   0.77832  8- 3   0.04298  8- 4   0.01601  8- 5  -0.00390  8- 6   0.00508  8- 7   0.00994  8- 8   0.00000
  9- 1   0.02362  9- 2  -0.02350  9- 3   0.88596  9- 4  -0.03776  9- 5   0.02625  9- 6  -0.00086  9- 7   0.00187  9- 8   0.00631
 10- 1   0.02362 10- 2  -0.00086 10- 3   0.02625 10- 4  -0.03776 10- 5   0.88596 10- 6  -0.02350 10- 7   0.00187 10- 8   0.00012
 11- 1   0.04237 11- 2   0.00508 11- 3  -0.00390 11- 4   0.01601 11- 5   0.04298 11- 6   0.77832 11- 7   0.00994 11- 8   0.00169
  1- 9   0.02362  1-10   0.02362  1-11   0.04237
  2- 9  -0.02350  2-10  -0.00086  2-11   0.00508
  3- 9   0.88596  3-10   0.02625  3-11  -0.00390
  4- 9  -0.03776  4-10  -0.03776  4-11   0.01601
  5- 9   0.02625  5-10   0.88596  5-11   0.04298
  6- 9  -0.00086  6-10  -0.02350  6-11   0.77832
  7- 9   0.00187  7-10   0.00187  7-11   0.00994
  8- 9   0.00631  8-10   0.00012  8-11   0.00169
  9- 9   0.00000  9-10   0.00020  9-11   0.00012
 10- 9   0.00020 10-10   0.00000 10-11   0.00631
 11- 9   0.00012 11-10   0.00631 11-11   0.00000

 Large bond indices
 ------------------
  1   C -  2   C    1.56670
  1   C -  3   C    0.21248
  1   C -  5   C    0.21248
  1   C -  6   C    1.56670
  1   C -  7   H    0.76517
  2   C -  3   C    1.43902
  2   C -  8   H    0.77832
  3   C -  4   N    1.15895
  3   C -  5   C    0.29239
  3   C -  9   H    0.88596
  4   N -  5   C    1.15895
  5   C -  6   C    1.43902
  5   C - 10   H    0.88596
  6   C - 11   H    0.77832

                                                                Free electrons             Valency
                              Number of         Sum of          + Bond indices         - Bond indices    
                Valency     Free electrons    Bond indices     =Mulliken charge     = Net spin population
     1  C       4.45991        1.93391          4.45991           6.39382                 0.00000
     2  C       3.67984        2.18364          3.67984           5.86348                -0.00000
     3  C       4.05863        2.34574          4.05863           6.40437                 0.00000
     4  N       2.21519        5.10351          2.21519           7.31870                -0.00000
     5  C       4.05863        2.34574          4.05863           6.40437                -0.00000
     6  C       3.67984        2.18364          3.67984           5.86348                -0.00000
     7  H       0.91813       -0.16511          0.91813           0.75302                -0.00000
     8  H       0.89892       -0.15381          0.89892           0.74511                 0.00000
     9  H       0.88222       -0.12795          0.88222           0.75427                 0.00000
    10  H       0.88222       -0.12795          0.88222           0.75427                -0.00000
    11  H       0.89892       -0.15381          0.89892           0.74511                 0.00000
 MOLDEN output will be written to the file ./pyridine.molden
  do_norm_janpa  T
  do_norm_nwchem  F
  molden scftype: RHF                  spinref:                     1

 Task  times  cpu:       13.2s     wall:       14.6s


                                NWChem Input Module
                                -------------------


 Summary of allocated global arrays
-----------------------------------
  No active global arrays



                         GA Statistics for process    0
                         ------------------------------

       create   destroy   get      put      acc     scatter   gather  read&inc
calls: 7415     7168     5.93e+05 3.87e+04 3.79e+05   20        0     5.49e+04 
number of processes/call 0.00e+00 0.00e+00 0.00e+00 0.00e+00 0.00e+00
bytes total:             5.87e+08 1.02e+08 3.05e+08 1.35e+03 0.00e+00 4.39e+05
bytes remote:            2.67e+08 3.24e+07 1.17e+08 0.00e+00 0.00e+00 0.00e+00
Max memory consumed for GA by this process: 855168 bytes

MA_summarize_allocated_blocks: starting scan ...
MA_summarize_allocated_blocks: scan completed: 0 heap blocks, 0 stack blocks
MA usage statistics:

	allocation statistics:
					      heap	     stack
					      ----	     -----
	current number of blocks	         0	         0
	maximum number of blocks	        27	        57
	current total bytes		         0	         0
	maximum total bytes		  16424256	  29763992
	maximum total K-bytes		     16425	     29764
	maximum total M-bytes		        17	        30


                                     CITATION
                                     --------
                Please cite the following reference when publishing
                           results obtained with NWChem:

          E. Apr, E. J. Bylaska, W. A. de Jong, N. Govind, K. Kowalski,
       T. P. Straatsma, M. Valiev, H. J. J. van Dam, Y. Alexeev, J. Anchell,
       V. Anisimov, F. W. Aquino, R. Atta-Fynn, J. Autschbach, N. P. Bauman,
     J. C. Becca, D. E. Bernholdt, K. Bhaskaran-Nair, S. Bogatko, P. Borowski,
        J. Boschen, J. Brabec, A. Bruner, E. Caut, Y. Chen, G. N. Chuev,
      C. J. Cramer, J. Daily, M. J. O. Deegan, T. H. Dunning Jr., M. Dupuis,
   K. G. Dyall, G. I. Fann, S. A. Fischer, A. Fonari, H. Frchtl, L. Gagliardi,
      J. Garza, N. Gawande, S. Ghosh, K. Glaesemann, A. W. Gtz, J. Hammond,
       V. Helms, E. D. Hermes, K. Hirao, S. Hirata, M. Jacquelin, L. Jensen,
   B. G. Johnson, H. Jnsson, R. A. Kendall, M. Klemm, R. Kobayashi, V. Konkov,
      S. Krishnamoorthy, M. Krishnan, Z. Lin, R. D. Lins, R. J. Littlefield,
      A. J. Logsdail, K. Lopata, W. Ma, A. V. Marenich, J. Martin del Campo,
   D. Mejia-Rodriguez, J. E. Moore, J. M. Mullin, T. Nakajima, D. R. Nascimento,
    J. A. Nichols, P. J. Nichols, J. Nieplocha, A. Otero-de-la-Roza, B. Palmer,
    A. Panyala, T. Pirojsirikul, B. Peng, R. Peverati, J. Pittner, L. Pollack,
   R. M. Richard, P. Sadayappan, G. C. Schatz, W. A. Shelton, D. W. Silverstein,
   D. M. A. Smith, T. A. Soares, D. Song, M. Swart, H. L. Taylor, G. S. Thomas,
            V. Tipparaju, D. G. Truhlar, K. Tsemekhman, T. Van Voorhis,
     . Vzquez-Mayagoitia, P. Verma, O. Villa, A. Vishnu, K. D. Vogiatzis,
        D. Wang, J. H. Weare, M. J. Williamson, T. L. Windus, K. Woliski,
        A. T. Wong, Q. Wu, C. Yang, Q. Yu, M. Zacharias, Z. Zhang, Y. Zhao,
                                and R. J. Harrison
                        "NWChem: Past, present, and future
                         J. Chem. Phys. 152, 184102 (2020)
                               doi:10.1063/5.0004997

                                      AUTHORS
                                      -------
     E. Apra, E. J. Bylaska, N. Govind, K. Kowalski, M. Valiev, W. A. de Jong,
      T. P. Straatsma, H. J. J. van Dam, D. Wang, T. L. Windus, N. P. Bauman,
       A. Panyala, J. Hammond, J. Autschbach, K. Bhaskaran-Nair, J. Brabec,
    K. Lopata, S. A. Fischer, S. Krishnamoorthy, M. Jacquelin, W. Ma, M. Klemm,
       O. Villa, Y. Chen, V. Anisimov, F. Aquino, S. Hirata, M. T. Hackler,
           Eric Hermes, L. Jensen, J. E. Moore, J. C. Becca, V. Konjkov,
            D. Mejia-Rodriguez, T. Risthaus, M. Malagoli, A. Marenich,
   A. Otero-de-la-Roza, J. Mullin, P. Nichols, R. Peverati, J. Pittner, Y. Zhao,
        P.-D. Fan, A. Fonari, M. J. Williamson, R. J. Harrison, J. R. Rehr,
      M. Dupuis, D. Silverstein, D. M. A. Smith, J. Nieplocha, V. Tipparaju,
      M. Krishnan, B. E. Van Kuiken, A. Vazquez-Mayagoitia, M. Swart, Q. Wu,
   T. Van Voorhis, A. A. Auer, M. Nooijen, L. D. Crosby, E. Brown, G. Cisneros,
     G. I. Fann, H. Fruchtl, J. Garza, K. Hirao, R. A. Kendall, J. A. Nichols,
       K. Tsemekhman, K. Wolinski, J. Anchell, D. E. Bernholdt, P. Borowski,
       T. Clark, D. Clerc, H. Dachsel, M. J. O. Deegan, K. Dyall, D. Elwood,
      E. Glendening, M. Gutowski, A. C. Hess, J. Jaffe, B. G. Johnson, J. Ju,
        R. Kobayashi, R. Kutteh, Z. Lin, R. Littlefield, X. Long, B. Meng,
      T. Nakajima, S. Niu, L. Pollack, M. Rosing, K. Glaesemann, G. Sandrone,
      M. Stave, H. Taylor, G. Thomas, J. H. van Lenthe, A. T. Wong, Z. Zhang.

 Total times  cpu:      105.0s     wall:      134.5s
[0] ARMCI Warning: Freed 1 leaked allocations
