[Molden Format]
[Atoms] AU
   C     1    6      0.0000000000     0.0000000000     2.6223371807
   C     2    6      0.0000000000     2.2807373155     1.2752038190
   C     3    6      0.0000000000     2.1987715673    -1.3691233903
   N     4    7      0.0000000000     0.0000000000    -2.6973558346
   C     5    6      0.0000000000    -2.1987715673    -1.3691233903
   C     6    6      0.0000000000    -2.2807373155     1.2752038190
   H     7    1      0.0000000000     0.0000000000     4.6736562232
   H     8    1      0.0000000000     4.0862521709     2.2450762736
   H     9    1      0.0000000000     3.9242312442    -2.4745846111
   H    10    1      0.0000000000    -3.9242312442    -2.4745846111
   H    11    1      0.0000000000    -4.0862521709     2.2450762736
[GTO]
    1  0
  s      6  0
      3047.5248800000         0.0018347371
       457.3695180000         0.0140373228
       103.9486850000         0.0688426223
        29.2101553000         0.2321844432
         9.2866629600         0.4679413484
         3.1639269600         0.3623119853
  s      3  0
         7.8682723500        -0.1193324198
         1.8812885400        -0.1608541517
         0.5442492580         1.1434564378
  p      3  0
         7.8682723500         0.0689990666
         1.8812885400         0.3164239610
         0.5442492580         0.7443082909
  s      1  0
         0.1687144782         1.0000000000
  p      1  0
         0.1687144782         1.0000000000
  s      1  0
         0.0438000000         1.0000000000
  p      1  0
         0.0438000000         1.0000000000

    2  0
  s      6  0
      3047.5248800000         0.0018347371
       457.3695180000         0.0140373228
       103.9486850000         0.0688426223
        29.2101553000         0.2321844432
         9.2866629600         0.4679413484
         3.1639269600         0.3623119853
  s      3  0
         7.8682723500        -0.1193324198
         1.8812885400        -0.1608541517
         0.5442492580         1.1434564378
  p      3  0
         7.8682723500         0.0689990666
         1.8812885400         0.3164239610
         0.5442492580         0.7443082909
  s      1  0
         0.1687144782         1.0000000000
  p      1  0
         0.1687144782         1.0000000000
  s      1  0
         0.0438000000         1.0000000000
  p      1  0
         0.0438000000         1.0000000000

    3  0
  s      6  0
      3047.5248800000         0.0018347371
       457.3695180000         0.0140373228
       103.9486850000         0.0688426223
        29.2101553000         0.2321844432
         9.2866629600         0.4679413484
         3.1639269600         0.3623119853
  s      3  0
         7.8682723500        -0.1193324198
         1.8812885400        -0.1608541517
         0.5442492580         1.1434564378
  p      3  0
         7.8682723500         0.0689990666
         1.8812885400         0.3164239610
         0.5442492580         0.7443082909
  s      1  0
         0.1687144782         1.0000000000
  p      1  0
         0.1687144782         1.0000000000
  s      1  0
         0.0438000000         1.0000000000
  p      1  0
         0.0438000000         1.0000000000

    4  0
  s      6  0
      4173.5114600000         0.0018347722
       627.4579110000         0.0139946270
       142.9020930000         0.0685865518
        40.2343293000         0.2322408730
        12.8202129000         0.4690699481
         4.3904370100         0.3604551991
  s      3  0
        11.6263618600        -0.1149611817
         2.7162798070        -0.1691174786
         0.7722183966         1.1458519471
  p      3  0
        11.6263618600         0.0675797439
         2.7162798070         0.3239072959
         0.7722183966         0.7408951398
  s      1  0
         0.2120314975         1.0000000000
  p      1  0
         0.2120314975         1.0000000000
  s      1  0
         0.0639000000         1.0000000000
  p      1  0
         0.0639000000         1.0000000000

    5  0
  s      6  0
      3047.5248800000         0.0018347371
       457.3695180000         0.0140373228
       103.9486850000         0.0688426223
        29.2101553000         0.2321844432
         9.2866629600         0.4679413484
         3.1639269600         0.3623119853
  s      3  0
         7.8682723500        -0.1193324198
         1.8812885400        -0.1608541517
         0.5442492580         1.1434564378
  p      3  0
         7.8682723500         0.0689990666
         1.8812885400         0.3164239610
         0.5442492580         0.7443082909
  s      1  0
         0.1687144782         1.0000000000
  p      1  0
         0.1687144782         1.0000000000
  s      1  0
         0.0438000000         1.0000000000
  p      1  0
         0.0438000000         1.0000000000

    6  0
  s      6  0
      3047.5248800000         0.0018347371
       457.3695180000         0.0140373228
       103.9486850000         0.0688426223
        29.2101553000         0.2321844432
         9.2866629600         0.4679413484
         3.1639269600         0.3623119853
  s      3  0
         7.8682723500        -0.1193324198
         1.8812885400        -0.1608541517
         0.5442492580         1.1434564378
  p      3  0
         7.8682723500         0.0689990666
         1.8812885400         0.3164239610
         0.5442492580         0.7443082909
  s      1  0
         0.1687144782         1.0000000000
  p      1  0
         0.1687144782         1.0000000000
  s      1  0
         0.0438000000         1.0000000000
  p      1  0
         0.0438000000         1.0000000000

    7  0
  s      3  0
        18.7311369600         0.0334946043
         2.8253943650         0.2347269535
         0.6401216923         0.8137573261
  s      1  0
         0.1612777588         1.0000000000
  s      1  0
         0.0360000000         1.0000000000

    8  0
  s      3  0
        18.7311369600         0.0334946043
         2.8253943650         0.2347269535
         0.6401216923         0.8137573261
  s      1  0
         0.1612777588         1.0000000000
  s      1  0
         0.0360000000         1.0000000000

    9  0
  s      3  0
        18.7311369600         0.0334946043
         2.8253943650         0.2347269535
         0.6401216923         0.8137573261
  s      1  0
         0.1612777588         1.0000000000
  s      1  0
         0.0360000000         1.0000000000

   10  0
  s      3  0
        18.7311369600         0.0334946043
         2.8253943650         0.2347269535
         0.6401216923         0.8137573261
  s      1  0
         0.1612777588         1.0000000000
  s      1  0
         0.0360000000         1.0000000000

   11  0
  s      3  0
        18.7311369600         0.0334946043
         2.8253943650         0.2347269535
         0.6401216923         0.8137573261
  s      1  0
         0.1612777588         1.0000000000
  s      1  0
         0.0360000000         1.0000000000

[5D]
[9G]
[MO]
Sym= a1   
Ene=  -0.14359325070286E+02
Spin= Alpha
Occup=       2.0000000000
     1   -0.000116856258
     2   -0.000930164032
     3    0.000000000000
     4    0.000000000000
     5    0.000055573364
     6    0.015474122744
     7   -0.000000000000
     8    0.000000000000
     9   -0.008737993515
    10    0.047837828898
    11   -0.000000000000
    12    0.000000000000
    13   -0.013083351098
    14    0.000128108081
    15    0.000842115649
    16    0.000000000000
    17   -0.000198970900
    18    0.000162378028
    19   -0.012294585460
    20   -0.000000000000
    21    0.010432629637
    22    0.003762605603
    23   -0.036619318837
    24    0.000000000000
    25    0.012497126613
    26    0.004931805195
    27    0.000064203517
    28   -0.000763132861
    29   -0.000000000000
    30    0.000151397254
    31    0.000038417002
    32    0.016662030971
    33    0.000000000000
    34   -0.012060167381
    35    0.002256621345
    36    0.009822656695
    37   -0.000000000000
    38   -0.003104506658
    39    0.005653390865
    40    0.995509943322
    41    0.034509998997
    42   -0.000000000000
    43    0.000000000000
    44    0.002617797188
    45   -0.040146977544
    46    0.000000000000
    47   -0.000000000000
    48   -0.011488618191
    49    0.008475580413
    50    0.000000000000
    51   -0.000000000000
    52    0.001329368390
    53    0.000064203517
    54   -0.000763132861
    55    0.000000000000
    56   -0.000151397254
    57    0.000038417002
    58    0.016662030971
    59   -0.000000000000
    60    0.012060167381
    61    0.002256621345
    62    0.009822656694
    63    0.000000000000
    64    0.003104506658
    65    0.005653390865
    66    0.000128108081
    67    0.000842115649
    68   -0.000000000000
    69    0.000198970900
    70    0.000162378028
    71   -0.012294585460
    72    0.000000000000
    73   -0.010432629637
    74    0.003762605603
    75   -0.036619318837
    76   -0.000000000000
    77   -0.012497126613
    78    0.004931805195
    79    0.000141077640
    80    0.002391396615
    81    0.004671441234
    82   -0.000377061445
    83   -0.004237926167
    84   -0.006377414377
    85    0.000141223334
    86    0.003681088248
    87    0.003991455806
    88    0.000141223334
    89    0.003681088248
    90    0.003991455806
    91   -0.000377061445
    92   -0.004237926167
    93   -0.006377414377
Sym= a1   
Ene=  -0.10238829635027E+02
Spin= Alpha
Occup=       2.0000000000
     1    0.000284833220
     2   -0.000148380697
     3   -0.000000000000
     4   -0.000000000000
     5   -0.000031721890
     6   -0.003263391170
     7    0.000000000000
     8   -0.000000000000
     9    0.002754162531
    10   -0.106579077110
    11    0.000000000000
    12   -0.000000000000
    13    0.032528981165
    14    0.006313386455
    15   -0.000577829036
    16   -0.000000000000
    17    0.000109953875
    18    0.000664452545
    19    0.006650947660
    20    0.000000000000
    21   -0.002551312554
    22   -0.003763997328
    23    0.114268184045
    24   -0.000000000000
    25   -0.018416994422
    26   -0.016912728465
    27    0.703807348256
    28    0.026985057098
    29    0.000000000000
    30   -0.000667219896
    31   -0.000049846776
    32   -0.029679126258
    33   -0.000000000000
    34    0.003751386938
    35   -0.001274341918
    36   -0.069459483043
    37    0.000000000000
    38    0.003934680118
    39   -0.015872929764
    40   -0.000027680449
    41   -0.000428727573
    42    0.000000000000
    43   -0.000000000000
    44   -0.000600017080
    45    0.006735005603
    46   -0.000000000000
    47    0.000000000000
    48    0.003249590460
    49    0.033161724186
    50   -0.000000000000
    51    0.000000000000
    52    0.011222572731
    53    0.703807348256
    54    0.026985057098
    55   -0.000000000000
    56    0.000667219896
    57   -0.000049846776
    58   -0.029679126258
    59    0.000000000000
    60   -0.003751386938
    61   -0.001274341918
    62   -0.069459483043
    63   -0.000000000000
    64   -0.003934680118
    65   -0.015872929764
    66    0.006313386455
    67   -0.000577829036
    68    0.000000000000
    69   -0.000109953875
    70    0.000664452545
    71    0.006650947660
    72   -0.000000000000
    73    0.002551312554
    74   -0.003763997328
    75    0.114268184045
    76   -0.000000000000
    77    0.018416994422
    78   -0.016912728465
    79   -0.000005363792
    80   -0.000666028604
    81   -0.008736413609
    82    0.000061645865
    83    0.000937214553
    84    0.004612676709
    85   -0.000491344494
    86    0.003116685542
    87   -0.000321200229
    88   -0.000491344494
    89    0.003116685542
    90   -0.000321200229
    91    0.000061645865
    92    0.000937214553
    93    0.004612676709
Sym= b2   
Ene=  -0.10238827780230E+02
Spin= Alpha
Occup=       2.0000000000
     1    0.000000000000
     2    0.000000000000
     3   -0.000000000000
     4   -0.000245520386
     5    0.000000000000
     6   -0.000000000000
     7   -0.000000000000
     8    0.000940814793
     9   -0.000000000000
    10    0.000000000001
    11   -0.000000000000
    12   -0.017234188267
    13   -0.000000000000
    14    0.006571717128
    15   -0.000349456199
    16    0.000000000000
    17   -0.000018848094
    18    0.000546237298
    19    0.005485412324
    20    0.000000000000
    21   -0.001057117751
    22   -0.004091026866
    23   -0.048632010056
    24    0.000000000000
    25   -0.002265463142
    26    0.026919363944
    27    0.703858547760
    28    0.027290600470
    29    0.000000000000
    30   -0.000762745917
    31   -0.000179819860
    32   -0.026839749200
    33    0.000000000000
    34    0.003253465736
    35   -0.002190949971
    36    0.061449803065
    37    0.000000000000
    38   -0.005973312740
    39    0.033478741195
    40   -0.000000000000
    41   -0.000000000000
    42   -0.000000000000
    43   -0.000590155513
    44   -0.000000000000
    45    0.000000000000
    46   -0.000000000000
    47    0.000715642322
    48    0.000000000000
    49   -0.000000000000
    50   -0.000000000000
    51    0.016719621574
    52   -0.000000000000
    53   -0.703858547760
    54   -0.027290600470
    55   -0.000000000000
    56   -0.000762745917
    57    0.000179819860
    58    0.026839749200
    59    0.000000000000
    60    0.003253465736
    61    0.002190949971
    62   -0.061449803064
    63    0.000000000000
    64   -0.005973312740
    65   -0.033478741194
    66   -0.006571717128
    67    0.000349456199
    68    0.000000000000
    69   -0.000018848094
    70   -0.000546237298
    71   -0.005485412324
    72    0.000000000000
    73   -0.001057117751
    74    0.004091026866
    75    0.048632010054
    76    0.000000000000
    77   -0.002265463142
    78   -0.026919363944
    79    0.000000000000
    80    0.000000000000
    81    0.000000000000
    82   -0.000008083349
    83    0.000598149838
    84   -0.004265948431
    85   -0.000640904602
    86    0.001463023571
    87    0.013037807976
    88    0.000640904602
    89   -0.001463023571
    90   -0.013037807976
    91    0.000008083349
    92   -0.000598149838
    93    0.004265948431
Sym= a1   
Ene=  -0.10220039643659E+02
Spin= Alpha
Occup=       2.0000000000
     1    0.994584403922
     2    0.037950544985
     3    0.000000000000
     4    0.000000000000
     5   -0.000535233656
     6   -0.042993122828
     7   -0.000000000000
     8    0.000000000000
     9    0.008754962116
    10    0.126697819580
    11   -0.000000000000
    12    0.000000000000
    13   -0.033337231713
    14    0.028204416234
    15   -0.000623149438
    16    0.000000000000
    17    0.000832607801
    18   -0.000341812756
    19    0.012866001834
    20   -0.000000000000
    21   -0.008556398660
    22    0.000088555545
    23   -0.065137731972
    24    0.000000000000
    25    0.018017645895
    26   -0.001379273274
    27   -0.000469881608
    28   -0.000053814533
    29   -0.000000000000
    30   -0.000045474552
    31   -0.000245510839
    32   -0.004500747064
    33    0.000000000000
    34    0.002812119913
    35   -0.000660966688
    36    0.003036838794
    37   -0.000000000000
    38    0.001032354244
    39   -0.002333123840
    40   -0.000036355738
    41   -0.000479554171
    42    0.000000000000
    43   -0.000000000000
    44   -0.000090407433
    45    0.003946447004
    46    0.000000000000
    47   -0.000000000000
    48    0.001562772581
    49    0.005143174174
    50    0.000000000000
    51   -0.000000000000
    52    0.002448004186
    53   -0.000469881608
    54   -0.000053814533
    55    0.000000000000
    56    0.000045474552
    57   -0.000245510839
    58   -0.004500747064
    59   -0.000000000000
    60   -0.002812119913
    61   -0.000660966688
    62    0.003036838794
    63    0.000000000000
    64   -0.001032354244
    65   -0.002333123840
    66    0.028204416234
    67   -0.000623149438
    68   -0.000000000000
    69   -0.000832607801
    70   -0.000341812756
    71    0.012866001834
    72    0.000000000000
    73    0.008556398660
    74    0.000088555545
    75   -0.065137731972
    76   -0.000000000000
    77   -0.018017645895
    78   -0.001379273274
    79   -0.001027903960
    80    0.002914207776
    81    0.008230236655
    82    0.000027716527
    83    0.002144991387
    84   -0.003165780639
    85    0.000001284386
    86   -0.000597803224
    87   -0.002546550456
    88    0.000001284386
    89   -0.000597803224
    90   -0.002546550456
    91    0.000027716527
    92    0.002144991387
    93   -0.003165780639
Sym= b2   
Ene=  -0.10211895610729E+02
Spin= Alpha
Occup=       2.0000000000
     1   -0.000000000000
     2   -0.000000000000
     3   -0.000000000000
     4   -0.000949477517
     5    0.000000000000
     6    0.000000000000
     7   -0.000000000000
     8    0.005356638113
     9   -0.000000000000
    10   -0.000000000000
    11   -0.000000000000
    12   -0.013829887616
    13    0.000000000000
    14    0.703819154160
    15    0.027096548094
    16    0.000000000000
    17   -0.000484385598
    18   -0.000099857335
    19   -0.027981189658
    20    0.000000000000
    21    0.003604117574
    22    0.001981106215
    23    0.088527610659
    24    0.000000000000
    25   -0.024798041281
    26   -0.010821183421
    27   -0.006594653166
    28   -0.000859574771
    29    0.000000000000
    30   -0.000034293707
    31   -0.000720892591
    32    0.006268843409
    33   -0.000000000000
    34   -0.001311900144
    35    0.004880523330
    36   -0.069995246382
    37    0.000000000000
    38    0.013230495538
    39   -0.007710344443
    40    0.000000000000
    41    0.000000000000
    42   -0.000000000000
    43   -0.000064106912
    44    0.000000000000
    45   -0.000000000000
    46   -0.000000000000
    47   -0.000210340181
    48   -0.000000000000
    49   -0.000000000000
    50   -0.000000000000
    51    0.008380269288
    52   -0.000000000000
    53    0.006594653166
    54    0.000859574771
    55   -0.000000000000
    56   -0.000034293707
    57    0.000720892591
    58   -0.006268843409
    59    0.000000000000
    60   -0.001311900144
    61   -0.004880523330
    62    0.069995246382
    63   -0.000000000000
    64    0.013230495538
    65    0.007710344443
    66   -0.703819154160
    67   -0.027096548094
    68    0.000000000000
    69   -0.000484385598
    70    0.000099857335
    71    0.027981189658
    72    0.000000000000
    73    0.003604117574
    74   -0.001981106215
    75   -0.088527610659
    76    0.000000000000
    77   -0.024798041281
    78    0.010821183421
    79    0.000000000000
    80   -0.000000000000
    81   -0.000000000000
    82   -0.000686656141
    83    0.002616397660
    84    0.007575047127
    85    0.000065308575
    86    0.000520702882
    87   -0.000683800962
    88   -0.000065308575
    89   -0.000520702882
    90    0.000683800962
    91    0.000686656141
    92   -0.002616397660
    93   -0.007575047127
Sym= a1   
Ene=  -0.10211883992815E+02
Spin= Alpha
Occup=       2.0000000000
     1   -0.040157850300
     2   -0.003919313126
     3    0.000000000000
     4    0.000000000000
     5    0.000815121301
     6    0.022302318150
     7    0.000000000000
     8   -0.000000000000
     9   -0.011086003591
    10   -0.114132907596
    11    0.000000000000
    12    0.000000000000
    13    0.026203005592
    14    0.703258585543
    15    0.027114337418
    16   -0.000000000000
    17   -0.000331459211
    18   -0.000397735162
    19   -0.034553203107
    20   -0.000000000000
    21    0.008054448645
    22    0.004622989966
    23    0.114402031093
    24   -0.000000000000
    25   -0.022295908432
    26   -0.013716946708
    27   -0.006374897188
    28   -0.001173842567
    29   -0.000000000000
    30   -0.000039655769
    31   -0.000698705256
    32    0.011691974251
    33   -0.000000000000
    34   -0.003467199864
    35    0.005967842196
    36   -0.058576966963
    37   -0.000000000000
    38    0.005690553359
    39   -0.015004357745
    40    0.000056721580
    41    0.000544654601
    42    0.000000000000
    43    0.000000000000
    44    0.000005496818
    45   -0.006127640849
    46    0.000000000000
    47   -0.000000000000
    48   -0.002895299834
    49    0.008706096301
    50    0.000000000000
    51   -0.000000000000
    52    0.002043339327
    53   -0.006374897188
    54   -0.001173842567
    55    0.000000000000
    56    0.000039655769
    57   -0.000698705256
    58    0.011691974251
    59   -0.000000000000
    60    0.003467199864
    61    0.005967842196
    62   -0.058576966963
    63   -0.000000000000
    64   -0.005690553359
    65   -0.015004357745
    66    0.703258585543
    67    0.027114337418
    68   -0.000000000000
    69    0.000331459211
    70   -0.000397735162
    71   -0.034553203107
    72   -0.000000000000
    73   -0.008054448645
    74    0.004622989966
    75    0.114402031093
    76   -0.000000000000
    77    0.022295908432
    78   -0.013716946708
    79    0.000085241979
    80    0.002591623814
    81   -0.005138163422
    82   -0.000762021652
    83    0.001038164837
    84    0.004388839816
    85    0.000039255571
    86    0.001370831100
    87   -0.002220924522
    88    0.000039255571
    89    0.001370831100
    90   -0.002220924522
    91   -0.000762021652
    92    0.001038164837
    93    0.004388839816
Sym= a1   
Ene=  -0.96619072123388E+00
Spin= Alpha
Occup=       2.0000000000
     1   -0.036026349190
     2    0.067767743008
     3    0.000000000000
     4    0.000000000000
     5   -0.033838272611
     6    0.005562526039
     7    0.000000000000
     8   -0.000000000000
     9    0.003002070552
    10    0.026172249833
    11    0.000000000000
    12    0.000000000000
    13   -0.031042800275
    14   -0.045893509410
    15    0.083194428616
    16   -0.000000000000
    17   -0.028907362351
    18   -0.034517213149
    19    0.062816762128
    20   -0.000000000000
    21   -0.030611521514
    22   -0.006646711371
    23   -0.223054814360
    24   -0.000000000000
    25   -0.008892516805
    26    0.059187039727
    27   -0.096907323552
    28    0.187585290904
    29   -0.000000000000
    30   -0.105431607726
    31   -0.021580483351
    32    0.069198915512
    33   -0.000000000000
    34    0.025242186700
    35    0.011031657651
    36    0.218992243935
    37   -0.000000000000
    38    0.001054980907
    39    0.056021451627
    40   -0.159955626941
    41    0.327366788237
    42    0.000000000000
    43    0.000000000000
    44    0.135533412403
    45    0.367328423185
    46    0.000000000000
    47   -0.000000000000
    48    0.073884312507
    49   -0.080996940491
    50    0.000000000000
    51   -0.000000000000
    52   -0.045384945300
    53   -0.096907323552
    54    0.187585290904
    55    0.000000000000
    56    0.105431607726
    57   -0.021580483351
    58    0.069198915512
    59   -0.000000000000
    60   -0.025242186700
    61    0.011031657651
    62    0.218992243935
    63   -0.000000000000
    64   -0.001054980907
    65    0.056021451627
    66   -0.045893509410
    67    0.083194428616
    68   -0.000000000000
    69    0.028907362351
    70   -0.034517213149
    71    0.062816762128
    72   -0.000000000000
    73    0.030611521514
    74   -0.006646711371
    75   -0.223054814360
    76   -0.000000000000
    77    0.008892516805
    78    0.059187039727
    79    0.010181478730
    80    0.002970412263
    81    0.003442756066
    82    0.013329652761
    83    0.014472491827
    84    0.013610451761
    85    0.029232786250
    86   -0.005249962794
    87   -0.004040702598
    88    0.029232786250
    89   -0.005249962794
    90   -0.004040702598
    91    0.013329652761
    92    0.014472491827
    93    0.013610451761
Sym= a1   
Ene=  -0.82068424129014E+00
Spin= Alpha
Occup=       2.0000000000
     1   -0.146457165114
     2    0.285700957270
     3    0.000000000000
     4    0.000000000000
     5   -0.071405888908
     6    0.250262852279
     7    0.000000000000
     8   -0.000000000000
     9   -0.025558132327
    10    0.102598482403
    11    0.000000000000
    12    0.000000000000
    13   -0.009428329943
    14   -0.106564024116
    15    0.209646860129
    16   -0.000000000000
    17   -0.076960553660
    18    0.027438829930
    19    0.122885835153
    20   -0.000000000000
    21    0.023298459604
    22    0.004809965581
    23   -0.188117484298
    24   -0.000000000000
    25    0.047597137707
    26    0.042445894626
    27    0.000934299843
    28   -0.010007557820
    29   -0.000000000000
    30    0.053946473674
    31    0.103022199396
    32    0.046851584105
    33   -0.000000000000
    34   -0.045829759336
    35    0.012874180721
    36    0.159732391008
    37   -0.000000000000
    38   -0.033204242196
    39    0.056079485240
    40    0.086710149144
    41   -0.182507081271
    42    0.000000000000
    43    0.000000000000
    44   -0.041847333789
    45   -0.251769913728
    46    0.000000000000
    47   -0.000000000000
    48   -0.045109867748
    49   -0.068441780895
    50    0.000000000000
    51   -0.000000000000
    52   -0.018463406193
    53    0.000934299843
    54   -0.010007557820
    55    0.000000000000
    56   -0.053946473674
    57    0.103022199396
    58    0.046851584105
    59   -0.000000000000
    60    0.045829759336
    61    0.012874180721
    62    0.159732391008
    63   -0.000000000000
    64    0.033204242196
    65    0.056079485240
    66   -0.106564024116
    67    0.209646860129
    68   -0.000000000000
    69    0.076960553660
    70    0.027438829930
    71    0.122885835153
    72   -0.000000000000
    73   -0.023298459604
    74    0.004809965581
    75   -0.188117484298
    76   -0.000000000000
    77   -0.047597137707
    78    0.042445894626
    79    0.068967661600
    80    0.009197599711
    81   -0.001272947750
    82    0.048572571076
    83   -0.008165817281
    84   -0.027570903836
    85   -0.002509122531
    86    0.019659745949
    87    0.022787818626
    88   -0.002509122531
    89    0.019659745949
    90    0.022787818626
    91    0.048572571076
    92   -0.008165817281
    93   -0.027570903836
Sym= b2   
Ene=  -0.78054636805730E+00
Spin= Alpha
Occup=       2.0000000000
     1   -0.000000000000
     2   -0.000000000000
     3    0.000000000000
     4    0.104970515444
     5    0.000000000000
     6   -0.000000000000
     7    0.000000000000
     8    0.000730412844
     9    0.000000000000
    10   -0.000000000001
    11    0.000000000000
    12    0.039258326381
    13    0.000000000000
    14   -0.105768090853
    15    0.211133073584
    16    0.000000000000
    17    0.000405392286
    18   -0.067816936225
    19    0.164956158636
    20    0.000000000000
    21    0.008745911189
    22    0.005291422163
    23   -0.035252150153
    24   -0.000000000000
    25    0.049071475761
    26   -0.018111464033
    27   -0.120006140520
    28    0.244878617364
    29    0.000000000000
    30   -0.007545258882
    31    0.046061876808
    32    0.193154636634
    33    0.000000000000
    34    0.004412453007
    35    0.000620973754
    36    0.026014533519
    37    0.000000000000
    38   -0.003232707308
    39   -0.052089300583
    40   -0.000000000000
    41   -0.000000000000
    42    0.000000000000
    43    0.154733345504
    44    0.000000000000
    45    0.000000000000
    46    0.000000000000
    47    0.036383617623
    48    0.000000000000
    49    0.000000000000
    50   -0.000000000000
    51   -0.047647278852
    52    0.000000000000
    53    0.120006140520
    54   -0.244878617364
    55    0.000000000000
    56   -0.007545258882
    57   -0.046061876808
    58   -0.193154636634
    59    0.000000000000
    60    0.004412453007
    61   -0.000620973754
    62   -0.026014533520
    63    0.000000000000
    64   -0.003232707308
    65    0.052089300583
    66    0.105768090853
    67   -0.211133073584
    68    0.000000000000
    69    0.000405392286
    70    0.067816936225
    71   -0.164956158636
    72    0.000000000000
    73    0.008745911189
    74   -0.005291422163
    75    0.035252150155
    76   -0.000000000000
    77    0.049071475762
    78    0.018111464033
    79    0.000000000000
    80   -0.000000000000
    81   -0.000000000000
    82    0.058649011932
    83   -0.002217840665
    84   -0.014629837778
    85    0.068075585327
    86    0.005839550817
    87   -0.032784064886
    88   -0.068075585327
    89   -0.005839550817
    90    0.032784064886
    91   -0.058649011932
    92    0.002217840665
    93    0.014629837778
Sym= b2   
Ene=  -0.64553098798536E+00
Spin= Alpha
Occup=       2.0000000000
     1    0.000000000000
     2   -0.000000000000
     3   -0.000000000000
     4   -0.195114473388
     5    0.000000000000
     6   -0.000000000000
     7   -0.000000000000
     8   -0.029906566641
     9    0.000000000000
    10    0.000000000000
    11   -0.000000000000
    12   -0.050734076163
    13   -0.000000000000
    14    0.097010449309
    15   -0.195836917173
    16   -0.000000000000
    17   -0.002440656840
    18   -0.081941920936
    19   -0.187782631890
    20   -0.000000000000
    21   -0.012575729433
    22   -0.023629767200
    23    0.196590041002
    24    0.000000000000
    25   -0.060614118431
    26   -0.019480813697
    27   -0.076210200752
    28    0.163639814931
    29   -0.000000000000
    30   -0.045345096624
    31   -0.159406381424
    32    0.149306183986
    33   -0.000000000000
    34    0.004814283369
    35   -0.035344521922
    36   -0.136255631343
    37   -0.000000000000
    38    0.047572019238
    39   -0.041706398458
    40   -0.000000000000
    41    0.000000000000
    42   -0.000000000000
    43    0.268124646528
    44    0.000000000000
    45    0.000000000000
    46   -0.000000000000
    47    0.071105725117
    48    0.000000000000
    49   -0.000000000000
    50    0.000000000000
    51    0.004909613197
    52   -0.000000000000
    53    0.076210200752
    54   -0.163639814931
    55   -0.000000000000