[Molden Format]
[Atoms] AU
   C     1    6     -2.4204988171   -15.8013568812    -0.9758269893
   C     2    6     -2.0293996693   -12.9853468526    -1.5593191251
   C     3    6      0.0529126874   -11.7600181256     0.0570233466
   C     4    6      0.4621048525    -8.9388329911    -0.5131015688
   C     5    6      2.5458104903    -7.7343927666     1.1205649633
   C     6    6      3.1361573083    -4.9513422709     0.4956560894
   C     7    6      0.9689660117    -3.0990772114     1.0756118363
   C     8    6      1.7024838235    -0.3203337794     0.6330192472
   C     9    6     -0.4573294327     1.5424631261     1.1919569077
   C    10    6      0.3075177480     4.3268497478     0.8165061737
   C    11    6     -1.9110461577     6.1500122673     1.2996270675
   C    12    6     -1.3321366219     8.9578504003     1.7001837740
   N    13    7     -0.3187207857    10.5038400996    -0.5866821833
   C    14    6      2.4772263230    10.0082622664    -1.0263064293
   C    15    6     -1.7923594243     9.9084512115    -2.9719454994
   C    16    6     -0.6475786943    13.2930490353     0.0365477602
   H    17    1     -3.9083791015   -16.6139013788    -2.1525183232
   H    18    1     -2.9555772706   -16.0865806308     0.9989503625
   H    19    1     -0.6921115012   -16.8796344301    -1.3173260023
   H    20    1     -3.8080553961   -11.9661807971    -1.2631043372
   H    21    1     -1.5580041284   -12.7562122339    -3.5627159336
   H    22    1     -0.4192811414   -11.9898029682     2.0617882646
   H    23    1      1.8315991976   -12.7808316555    -0.2376909924
   H    24    1     -1.3279987865    -7.9362905979    -0.2354938870
   H    25    1      0.9536885450    -8.7131748456    -2.5146686326
   H    26    1      4.2816579560    -8.8389924844     0.8969161347
   H    27    1      2.0239447293    -7.8873613962     3.1205475675
   H    28    1      3.6520321875    -4.7968450413    -1.5059565425
   H    29    1      4.8092390591    -4.3719520768     1.5705772710
   H    30    1     -0.6791095736    -3.5569687302    -0.0874366337
   H    31    1      0.3796736167    -3.3430035737     3.0473016647
   H    32    1      2.3217932282    -0.0849702089    -1.3308059239
   H    33    1      3.3352276043     0.1480328572     1.8198028787
   H    34    1     -1.1048406058     1.2773259851     3.1405380244
   H    35    1     -2.0745533728     1.1029836017    -0.0250031567
   H    36    1      1.8744344140     4.7730637299     2.0956903308
   H    37    1      1.0312384079     4.5382215115    -1.1118841817
   H    38    1     -2.8250211532     5.5833022391     3.0698421643
   H    39    1     -3.3663546979     5.9089401101    -0.1460864624
   H    40    1      0.0664716689     9.2253172043     3.1885362110
   H    41    1     -3.0572224423     9.9338107725     2.2585461594
   H    42    1      2.7611368124     8.0275615462    -1.4503659822
   H    43    1      3.5125601516    10.5207838300     0.6708063534
   H    44    1      3.1056604004    11.1650961984    -2.6030701268
   H    45    1     -1.4294984836     7.9703003097    -3.5302112781
   H    46    1     -1.1772181023    11.1876744853    -4.4564626585
   H    47    1     -3.7950080461    10.1751371289    -2.6055107284
   H    48    1      0.2994758760    13.6915761694     1.8141255667
   H    49    1     -2.6507295262    13.7102971860     0.1984338440
   H    50    1      0.1845855420    14.4140779008    -1.4691756615
[GTO]
    1  0
  s      6  0
      4563.2400000000         0.0019666502
       682.0240000000         0.0152306019
       154.9730000000         0.0761269097
        44.4553000000         0.2608010331
        13.0290000000         0.6164620782
         1.8277300000         0.2210060280
  s      3  0
        20.9642000000         0.1146600807
         4.8033100000         0.9199996477
         1.4593300000        -0.0030306821
  p      3  0
        20.9642000000         0.0402486927
         4.8033100000         0.2375939567
         1.4593300000         0.8158538515
  s      1  0
         0.4834560000         1.0000000000
  p      1  0
         0.4834560000         1.0000000000
  s      1  0
         0.1455850000         1.0000000000
  p      1  0
         0.1455850000         1.0000000000
  s      1  0
         0.0438000000         1.0000000000
  p      1  0
         0.0438000000         1.0000000000

    2  0
  s      6  0
      4563.2400000000         0.0019666502
       682.0240000000         0.0152306019
       154.9730000000         0.0761269097
        44.4553000000         0.2608010331
        13.0290000000         0.6164620782
         1.8277300000         0.2210060280
  s      3  0
        20.9642000000         0.1146600807
         4.8033100000         0.9199996477
         1.4593300000        -0.0030306821
  p      3  0
        20.9642000000         0.0402486927
         4.8033100000         0.2375939567
         1.4593300000         0.8158538515
  s      1  0
         0.4834560000         1.0000000000
  p      1  0
         0.4834560000         1.0000000000
  s      1  0
         0.1455850000         1.0000000000
  p      1  0
         0.1455850000         1.0000000000
  s      1  0
         0.0438000000         1.0000000000
  p      1  0
         0.0438000000         1.0000000000

    3  0
  s      6  0
      4563.2400000000         0.0019666502
       682.0240000000         0.0152306019
       154.9730000000         0.0761269097
        44.4553000000         0.2608010331
        13.0290000000         0.6164620782
         1.8277300000         0.2210060280
  s      3  0
        20.9642000000         0.1146600807
         4.8033100000         0.9199996477
         1.4593300000        -0.0030306821
  p      3  0
        20.9642000000         0.0402486927
         4.8033100000         0.2375939567
         1.4593300000         0.8158538515
  s      1  0
         0.4834560000         1.0000000000
  p      1  0
         0.4834560000         1.0000000000
  s      1  0
         0.1455850000         1.0000000000
  p      1  0
         0.1455850000         1.0000000000
  s      1  0
         0.0438000000         1.0000000000
  p      1  0
         0.0438000000         1.0000000000

    4  0
  s      6  0
      4563.2400000000         0.0019666502
       682.0240000000         0.0152306019
       154.9730000000         0.0761269097
        44.4553000000         0.2608010331
        13.0290000000         0.6164620782
         1.8277300000         0.2210060280
  s      3  0
        20.9642000000         0.1146600807
         4.8033100000         0.9199996477
         1.4593300000        -0.0030306821
  p      3  0
        20.9642000000         0.0402486927
         4.8033100000         0.2375939567
         1.4593300000         0.8158538515
  s      1  0
         0.4834560000         1.0000000000
  p      1  0
         0.4834560000         1.0000000000
  s      1  0
         0.1455850000         1.0000000000
  p      1  0
         0.1455850000         1.0000000000
  s      1  0
         0.0438000000         1.0000000000
  p      1  0
         0.0438000000         1.0000000000

    5  0
  s      6  0
      4563.2400000000         0.0019666502
       682.0240000000         0.0152306019
       154.9730000000         0.0761269097
        44.4553000000         0.2608010331
        13.0290000000         0.6164620782
         1.8277300000         0.2210060280
  s      3  0
        20.9642000000         0.1146600807
         4.8033100000         0.9199996477
         1.4593300000        -0.0030306821
  p      3  0
        20.9642000000         0.0402486927
         4.8033100000         0.2375939567
         1.4593300000         0.8158538515
  s      1  0
         0.4834560000         1.0000000000
  p      1  0
         0.4834560000         1.0000000000
  s      1  0
         0.1455850000         1.0000000000
  p      1  0
         0.1455850000         1.0000000000
  s      1  0
         0.0438000000         1.0000000000
  p      1  0
         0.0438000000         1.0000000000

    6  0
  s      6  0
      4563.2400000000         0.0019666502
       682.0240000000         0.0152306019
       154.9730000000         0.0761269097
        44.4553000000         0.2608010331
        13.0290000000         0.6164620782
         1.8277300000         0.2210060280
  s      3  0
        20.9642000000         0.1146600807
         4.8033100000         0.9199996477
         1.4593300000        -0.0030306821
  p      3  0
        20.9642000000         0.0402486927
         4.8033100000         0.2375939567
         1.4593300000         0.8158538515
  s      1  0
         0.4834560000         1.0000000000
  p      1  0
         0.4834560000         1.0000000000
  s      1  0
         0.1455850000         1.0000000000
  p      1  0
         0.1455850000         1.0000000000
  s      1  0
         0.0438000000         1.0000000000
  p      1  0
         0.0438000000         1.0000000000

    7  0
  s      6  0
      4563.2400000000         0.0019666502
       682.0240000000         0.0152306019
       154.9730000000         0.0761269097
        44.4553000000         0.2608010331
        13.0290000000         0.6164620782
         1.8277300000         0.2210060280
  s      3  0
        20.9642000000         0.1146600807
         4.8033100000         0.9199996477
         1.4593300000        -0.0030306821
  p      3  0
        20.9642000000         0.0402486927
         4.8033100000         0.2375939567
         1.4593300000         0.8158538515
  s      1  0
         0.4834560000         1.0000000000
  p      1  0
         0.4834560000         1.0000000000
  s      1  0
         0.1455850000         1.0000000000
  p      1  0
         0.1455850000         1.0000000000
  s      1  0
         0.0438000000         1.0000000000
  p      1  0
         0.0438000000         1.0000000000

    8  0
  s      6  0
      4563.2400000000         0.0019666502
       682.0240000000         0.0152306019
       154.9730000000         0.0761269097
        44.4553000000         0.2608010331
        13.0290000000         0.6164620782
         1.8277300000         0.2210060280
  s      3  0
        20.9642000000         0.1146600807
         4.8033100000         0.9199996477
         1.4593300000        -0.0030306821
  p      3  0
        20.9642000000         0.0402486927
         4.8033100000         0.2375939567
         1.4593300000         0.8158538515
  s      1  0
         0.4834560000         1.0000000000
  p      1  0
         0.4834560000         1.0000000000
  s      1  0
         0.1455850000         1.0000000000
  p      1  0
         0.1455850000         1.0000000000
  s      1  0
         0.0438000000         1.0000000000
  p      1  0
         0.0438000000         1.0000000000

    9  0
  s      6  0
      4563.2400000000         0.0019666502
       682.0240000000         0.0152306019
       154.9730000000         0.0761269097
        44.4553000000         0.2608010331
        13.0290000000         0.6164620782
         1.8277300000         0.2210060280
  s      3  0
        20.9642000000         0.1146600807
         4.8033100000         0.9199996477
         1.4593300000        -0.0030306821
  p      3  0
        20.9642000000         0.0402486927
         4.8033100000         0.2375939567
         1.4593300000         0.8158538515
  s      1  0
         0.4834560000         1.0000000000
  p      1  0
         0.4834560000         1.0000000000
  s      1  0
         0.1455850000         1.0000000000
  p      1  0
         0.1455850000         1.0000000000
  s      1  0
         0.0438000000         1.0000000000
  p      1  0
         0.0438000000         1.0000000000

   10  0
  s      6  0
      4563.2400000000         0.0019666502
       682.0240000000         0.0152306019
       154.9730000000         0.0761269097
        44.4553000000         0.2608010331
        13.0290000000         0.6164620782
         1.8277300000         0.2210060280
  s      3  0
        20.9642000000         0.1146600807
         4.8033100000         0.9199996477
         1.4593300000        -0.0030306821
  p      3  0
        20.9642000000         0.0402486927
         4.8033100000         0.2375939567
         1.4593300000         0.8158538515
  s      1  0
         0.4834560000         1.0000000000
  p      1  0
         0.4834560000         1.0000000000
  s      1  0
         0.1455850000         1.0000000000
  p      1  0
         0.1455850000         1.0000000000
  s      1  0
         0.0438000000         1.0000000000
  p      1  0
         0.0438000000         1.0000000000

   11  0
  s      6  0
      4563.2400000000         0.0019666502
       682.0240000000         0.0152306019
       154.9730000000         0.0761269097
        44.4553000000         0.2608010331
        13.0290000000         0.6164620782
         1.8277300000         0.2210060280
  s      3  0
        20.9642000000         0.1146600807
         4.8033100000         0.9199996477
         1.4593300000        -0.0030306821
  p      3  0
        20.9642000000         0.0402486927
         4.8033100000         0.2375939567
         1.4593300000         0.8158538515
  s      1  0
         0.4834560000         1.0000000000
  p      1  0
         0.4834560000         1.0000000000
  s      1  0
         0.1455850000         1.0000000000
  p      1  0
         0.1455850000         1.0000000000
  s      1  0
         0.0438000000         1.0000000000
  p      1  0
         0.0438000000         1.0000000000

   12  0
  s      6  0
      4563.2400000000         0.0019666502
       682.0240000000         0.0152306019
       154.9730000000         0.0761269097
        44.4553000000         0.2608010331
        13.0290000000         0.6164620782
         1.8277300000         0.2210060280
  s      3  0
        20.9642000000         0.1146600807
         4.8033100000         0.9199996477
         1.4593300000        -0.0030306821
  p      3  0
        20.9642000000         0.0402486927
         4.8033100000         0.2375939567
         1.4593300000         0.8158538515
  s      1  0
         0.4834560000         1.0000000000
  p      1  0
         0.4834560000         1.0000000000
  s      1  0
         0.1455850000         1.0000000000
  p      1  0
         0.1455850000         1.0000000000
  s      1  0
         0.0438000000         1.0000000000
  p      1  0
         0.0438000000         1.0000000000

   13  0
  s      6  0
      6293.4800000000         0.0019697881
       949.0440000000         0.0149612859
       218.7760000000         0.0735005308
        63.6916000000         0.2489367658
        18.8282000000         0.6024594331
         2.7202300000         0.2562017589
  s      3  0
        30.6331000000         0.1119060795
         7.0261400000         0.9216666549
         2.1120500000        -0.0025691918
  p      3  0
        30.6331000000         0.0383119186
         7.0261400000         0.2374031155
         2.1120500000         0.8175923978
  s      1  0
         0.6840090000         1.0000000000
  p      1  0
         0.6840090000         1.0000000000
  s      1  0
         0.2008780000         1.0000000000
  p      1  0
         0.2008780000         1.0000000000
  s      1  0
         0.0639000000         1.0000000000
  p      1  0
         0.0639000000         1.0000000000

   14  0
  s      6  0
      4563.2400000000         0.0019666502
       682.0240000000         0.0152306019
       154.9730000000         0.0761269097
        44.4553000000         0.2608010331
        13.0290000000         0.6164620782
         1.8277300000         0.2210060280
  s      3  0
        20.9642000000         0.1146600807
         4.8033100000         0.9199996477
         1.4593300000        -0.0030306821
  p      3  0
        20.9642000000         0.0402486927
         4.8033100000         0.2375939567
         1.4593300000         0.8158538515
  s      1  0
         0.4834560000         1.0000000000
  p      1  0
         0.4834560000         1.0000000000
  s      1  0
         0.1455850000         1.0000000000
  p      1  0
         0.1455850000         1.0000000000
  s      1  0
         0.0438000000         1.0000000000
  p      1  0
         0.0438000000         1.0000000000

   15  0
  s      6  0
      4563.2400000000         0.0019666502
       682.0240000000         0.0152306019
       154.9730000000         0.0761269097
        44.4553000000         0.2608010331
        13.0290000000         0.6164620782
         1.8277300000         0.2210060280
  s      3  0
        20.9642000000         0.1146600807
         4.8033100000         0.9199996477
         1.4593300000        -0.0030306821
  p      3  0
        20.9642000000         0.0402486927
         4.8033100000         0.2375939567
         1.4593300000         0.8158538515
  s      1  0
         0.4834560000         1.0000000000
  p      1  0
         0.4834560000         1.0000000000
  s      1  0
         0.1455850000         1.0000000000
  p      1  0
         0.1455850000         1.0000000000
  s      1  0
         0.0438000000         1.0000000000
  p      1  0
         0.0438000000         1.0000000000

   16  0
  s      6  0
      4563.2400000000         0.0019666502
       682.0240000000         0.0152306019
       154.9730000000         0.0761269097
        44.4553000000         0.2608010331
        13.0290000000         0.6164620782
         1.8277300000         0.2210060280
  s      3  0
        20.9642000000         0.1146600807
         4.8033100000         0.9199996477
         1.4593300000        -0.0030306821
  p      3  0
        20.9642000000         0.0402486927
         4.8033100000         0.2375939567
         1.4593300000         0.8158538515
  s      1  0
         0.4834560000         1.0000000000
  p      1  0
         0.4834560000         1.0000000000
  s      1  0
         0.1455850000         1.0000000000
  p      1  0
         0.1455850000         1.0000000000
  s      1  0
         0.0438000000         1.0000000000
  p      1  0
         0.0438000000         1.0000000000

   17  0
  s      3  0
        33.8650000000         0.0254938145
         5.0947900000         0.1903731086
         1.1587900000         0.8521614860
  s      1  0
         0.3258400000         1.0000000000
  s      1  0
         0.1027410000         1.0000000000
  s      1  0
         0.0360000000         1.0000000000

   18  0
  s      3  0
        33.8650000000         0.0254938145
         5.0947900000         0.1903731086
         1.1587900000         0.8521614860
  s      1  0
         0.3258400000         1.0000000000
  s      1  0
         0.1027410000         1.0000000000
  s      1  0
         0.0360000000         1.0000000000

   19  0
  s      3  0
        33.8650000000         0.0254938145
         5.0947900000         0.1903731086
         1.1587900000         0.8521614860
  s      1  0
         0.3258400000         1.0000000000
  s      1  0
         0.1027410000         1.0000000000
  s      1  0
         0.0360000000         1.0000000000

   20  0
  s      3  0
        33.8650000000         0.0254938145
         5.0947900000         0.1903731086
         1.1587900000         0.8521614860
  s      1  0
         0.3258400000         1.0000000000
  s      1  0
         0.1027410000         1.0000000000
  s      1  0
         0.0360000000         1.0000000000

   21  0
  s      3  0
        33.8650000000         0.0254938145
         5.0947900000         0.1903731086
         1.1587900000         0.8521614860
  s      1  0
         0.3258400000         1.0000000000
  s      1  0
         0.1027410000         1.0000000000
  s      1  0
         0.0360000000         1.0000000000

   22  0
  s      3  0
        33.8650000000         0.0254938145
         5.0947900000         0.1903731086
         1.1587900000         0.8521614860
  s      1  0
         0.3258400000         1.0000000000
  s      1  0
         0.1027410000         1.0000000000
  s      1  0
         0.0360000000         1.0000000000

   23  0
  s      3  0
        33.8650000000         0.0254938145
         5.0947900000         0.1903731086
         1.1587900000         0.8521614860
  s      1  0
         0.3258400000         1.0000000000
  s      1  0
         0.1027410000         1.0000000000
  s      1  0
         0.0360000000         1.0000000000

   24  0
  s      3  0
        33.8650000000         0.0254938145
         5.0947900000         0.1903731086
         1.1587900000         0.8521614860
  s      1  0
         0.3258400000         1.0000000000
  s      1  0
         0.1027410000         1.0000000000
  s      1  0
         0.0360000000         1.0000000000

   25  0
  s      3  0
        33.8650000000         0.0254938145
         5.0947900000         0.1903731086
         1.1587900000         0.8521614860
  s      1  0
         0.3258400000         1.0000000000
  s      1  0
         0.1027410000         1.0000000000
  s      1  0
         0.0360000000         1.0000000000

   26  0
  s      3  0
        33.8650000000         0.0254938145
         5.0947900000         0.1903731086
         1.1587900000         0.8521614860
  s      1  0
         0.3258400000         1.0000000000
  s      1  0
         0.1027410000         1.0000000000
  s      1  0
         0.0360000000         1.0000000000

   27  0
  s      3  0
        33.8650000000         0.0254938145
         5.0947900000         0.1903731086
         1.1587900000         0.8521614860
  s      1  0
         0.3258400000         1.0000000000
  s      1  0
         0.1027410000         1.0000000000
  s      1  0
         0.0360000000         1.0000000000

   28  0
  s      3  0
        33.8650000000         0.0254938145
         5.0947900000         0.1903731086
         1.1587900000         0.8521614860
  s      1  0
         0.3258400000         1.0000000000
  s      1  0
         0.1027410000         1.0000000000
  s      1  0
         0.0360000000         1.0000000000

   29  0
  s      3  0
        33.8650000000         0.0254938145
         5.0947900000         0.1903731086
         1.1587900000         0.8521614860
  s      1  0
         0.3258400000         1.0000000000
  s      1  0
         0.1027410000         1.0000000000
  s      1  0
         0.0360000000         1.0000000000

   30  0
  s      3  0
        33.8650000000         0.0254938145
         5.0947900000         0.1903731086
         1.1587900000         0.8521614860
  s      1  0
         0.3258400000         1.0000000000
  s      1  0
         0.1027410000         1.0000000000
  s      1  0
         0.0360000000         1.0000000000

   31  0
  s      3  0
        33.8650000000         0.0254938145
         5.0947900000         0.1903731086
         1.1587900000         0.8521614860
  s      1  0
         0.3258400000         1.0000000000
  s      1  0
         0.1027410000         1.0000000000
  s      1  0
         0.0360000000         1.0000000000

   32  0
  s      3  0
        33.8650000000         0.0254938145
         5.0947900000         0.1903731086
         1.1587900000         0.8521614860
  s      1  0
         0.3258400000         1.0000000000
  s      1  0
         0.1027410000         1.0000000000
  s      1  0
         0.0360000000         1.0000000000

   33  0
  s      3  0
        33.8650000000         0.0254938145
         5.0947900000         0.1903731086
         1.1587900000         0.8521614860
  s      1  0
         0.3258400000         1.0000000000
  s      1  0
         0.1027410000         1.0000000000
  s      1  0
         0.0360000000         1.0000000000

   34  0
  s      3  0
        33.8650000000         0.0254938145
         5.0947900000         0.1903731086
         1.1587900000         0.8521614860
  s      1  0
         0.3258400000         1.0000000000
  s      1  0
         0.1027410000         1.0000000000
  s      1  0
         0.0360000000         1.0000000000

   35  0
  s      3  0
        33.8650000000         0.0254938145
         5.0947900000         0.1903731086
         1.1587900000         0.8521614860
  s      1  0
         0.3258400000         1.0000000000
  s      1  0
         0.1027410000         1.0000000000
  s      1  0
         0.0360000000         1.0000000000

   36  0
  s      3  0
        33.8650000000         0.0254938145
         5.0947900000         0.1903731086
         1.1587900000         0.8521614860
  s      1  0
         0.3258400000         1.0000000000
  s      1  0
         0.1027410000         1.0000000000
  s      1  0
         0.0360000000         1.0000000000

   37  0
  s      3  0
        33.8650000000         0.0254938145
         5.0947900000         0.1903731086
         1.1587900000         0.8521614860
  s      1  0
         0.3258400000         1.0000000000
  s      1  0
         0.1027410000         1.0000000000
  s      1  0
         0.0360000000         1.0000000000

   38  0
  s      3  0
        33.8650000000         0.0254938145
         5.0947900000         0.1903731086
         1.1587900000         0.8521614860
  s      1  0
         0.3258400000         1.0000000000
  s      1  0
         0.1027410000         1.0000000000
  s      1  0
         0.0360000000         1.0000000000

   39  0
  s      3  0
        33.8650000000         0.0254938145
         5.0947900000         0.1903731086
         1.1587900000         0.8521614860
  s      1  0
         0.3258400000         1.0000000000
  s      1  0
         0.1027410000         1.0000000000
  s      1  0
         0.0360000000         1.0000000000

   40  0
  s      3  0
        33.8650000000         0.0254938145
         5.0947900000         0.1903731086
         1.1587900000         0.8521614860
  s      1  0
         0.3258400000         1.0000000000
  s      1  0
         0.1027410000         1.0000000000
  s      1  0
         0.0360000000         1.0000000000

   41  0
  s      3  0
        33.8650000000         0.0254938145
         5.0947900000         0.1903731086
         1.1587900000         0.8521614860
  s      1  0
         0.3258400000         1.0000000000
  s      1  0
         0.1027410000         1.0000000000
  s      1  0
         0.0360000000         1.0000000000

   42  0
  s      3  0
        33.8650000000         0.0254938145
         5.0947900000         0.1903731086
         1.1587900000         0.8521614860
  s      1  0
         0.3258400000         1.0000000000
  s      1  0
         0.1027410000         1.0000000000
  s      1  0
         0.0360000000         1.0000000000

   43  0
  s      3  0
        33.8650000000         0.0254938145
         5.0947900000         0.1903731086
         1.1587900000         0.8521614860
  s      1  0
         0.3258400000         1.0000000000
  s      1  0
         0.1027410000         1.0000000000
  s      1  0
         0.0360000000         1.0000000000

   44  0
  s      3  0
        33.8650000000         0.0254938145
         5.0947900000         0.1903731086
         1.1587900000         0.8521614860
  s      1  0
         0.3258400000         1.0000000000
  s      1  0
         0.1027410000         1.0000000000
  s      1  0
         0.0360000000         1.0000000000

   45  0
  s      3  0
        33.8650000000         0.0254938145
         5.0947900000         0.1903731086
         1.1587900000         0.8521614860
  s      1  0
         0.3258400000         1.0000000000
  s      1  0
         0.1027410000         1.0000000000
  s      1  0
         0.0360000000         1.0000000000

   46  0
  s      3  0
        33.8650000000         0.0254938145
         5.0947900000         0.1903731086
         1.1587900000         0.8521614860
  s      1  0
         0.3258400000         1.0000000000
  s      1  0
         0.1027410000         1.0000000000
  s      1  0
         0.0360000000         1.0000000000

   47  0
  s      3  0
        33.8650000000         0.0254938145
         5.0947900000         0.1903731086
         1.1587900000         0.8521614860
  s      1  0
         0.3258400000         1.0000000000
  s      1  0
         0.1027410000         1.0000000000
  s      1  0
         0.0360000000         1.0000000000

   48  0
  s      3  0
        33.8650000000         0.0254938145
         5.0947900000         0.1903731086
         1.1587900000         0.8521614860
  s      1  0
         0.3258400000         1.0000000000
  s      1  0
         0.1027410000         1.0000000000
  s      1  0
         0.0360000000         1.0000000000

   49  0
  s      3  0
        33.8650000000         0.0254938145
         5.0947900000         0.1903731086
         1.1587900000         0.8521614860
  s      1  0
         0.3258400000         1.0000000000
  s      1  0
         0.1027410000         1.0000000000
  s      1  0
         0.0360000000         1.0000000000

   50  0
  s      3  0
        33.8650000000         0.0254938145
         5.0947900000         0.1903731086
         1.1587900000         0.8521614860
  s      1  0
         0.3258400000         1.0000000000
  s      1  0
         0.1027410000         1.0000000000
  s      1  0
         0.0360000000         1.0000000000

[5D]
[9G]
[MO]
Sym= a    
Ene=  -0.14612559749551E+02
Spin= Alpha
Occup=       2.0000000000
     1   -0.000000032634
     2    0.000000232235
     3   -0.000000186868
     4   -0.000000585411
     5   -0.000001470284
     6   -0.000001314086
     7    0.000000830986
     8    0.000002680129
     9    0.000006129396
    10    0.000008484215
    11   -0.000007272192
    12   -0.000018235631
    13   -0.000030093968
    14   -0.000208450451
    15   -0.000066491952
    16   -0.000126384966
    17   -0.000151163806
    18   -0.000000031777
    19    0.000000198801
    20   -0.000001235700
    21   -0.000000269170
    22    0.000001612349
    23   -0.000003400142
    24    0.000004955346
    25    0.000001201088
    26   -0.000007494090
    27    0.000035199097
    28   -0.000006271331
    29    0.000008110306
    30    0.000034657511
    31   -0.002213709218
    32   -0.000641347262
    33   -0.000286584338
    34   -0.000016875397
    35    0.000000070963